ITEM: TIMESTEP
0
ITEM: NUMBER OF ATOMS40000
ITEM: BOX BOUNDS pp pp pp
0 50
0 50
0 50
ITEM: ATOMS id mol type x y z E
1	0	6.0	27.0	27.0359342.481176683	
2	0	6.0	26.0	26.0376924.9930803559	
3	0	7.0	25.0	25.0356047.1860113209	
4	0	7.0	26.0	26.0376925.4629896593	
5	0	6.0	26.0	26.0396704.2628992606	
6	0	6.0	25.0	25.0376376.5039824953	
7	0	7.0	24.0	24.0356595.7005807776	
8	0	7.0	23.0	23.0339012.50076705223	
9	0	6.0	23.0	23.0359342.26653239055	
10	0	6.0	24.0	24.0357693.9148840389	
11	0	6.0	24.0	24.0339561.4573174634	
12	0	6.0	24.0	24.0322528.8606421223	
13	0	6.0	25.0	25.0306046.14537385444	
14	0	5.0	26.0	26.0306045.9800903279	
15	0	6.0	25.0	25.0291211.78414408246	
16	0	7.0	25.0	25.0285716.2360517673	
17	0	8.0	25.0	25.0251650.77261974686	
18	0	8.0	26.0	26.0267035.1563628654	
19	0	7.0	26.0	26.0267034.80753945006	
20	0	8.0	27.0	27.0284618.1378712251	
21	0	9.0	26.0	26.0264837.08099244384	
22	0	10.0	26.0	26.0264837.8851824321	
23	0	10.0	27.0	27.0249452.71179205575	
24	0	9.0	28.0	28.0269232.1729020631	
25	0	10.0	28.0	28.0269232.01594806166	
26	0	11.0	28.0	28.0253299.29288372342	
27	0	11.0	28.0	28.0271429.56965573	
28	0	11.0	28.0	28.0268683.3364383425	
29	0	11.0	28.0	28.0253297.30277800895	
30	0	12.0	28.0	28.0221429.8530506767	
31	0	13.0	28.0	28.0207693.91488403882	
32	0	13.0	28.0	28.0191759.8489499729	
33	0	13.0	27.0	27.0189013.8388730654	
34	0	14.0	27.0	27.0191761.2631931934	
35	0	13.0	27.0	27.0174178.94703461332	
36	0	14.0	28.0	28.0164287.2609465904	
37	0	13.0	28.0	28.0179121.74952040348	
38	0	13.0	28.0	28.0191759.02520149347	
39	0	13.0	29.0	29.0195605.64046881537	
40	0	12.0	29.0	29.0225275.62994535535	
41	0	11.0	30.0	30.0245057.03727592048	
42	0	11.0	30.0	30.0262090.93352286372	
43	0	10.0	30.0	30.0260990.62777041795	
44	0	10.0	29.0	29.0240111.6688744965	
45	0	10.0	30.0	30.0245057.2294526402	
46	0	9.0	30.0	30.0262088.6753788607	
47	0	10.0	29.0	29.0247255.30090815597	
48	0	10.0	29.0	29.0225276.3071513194	
49	0	10.0	28.0	28.0207695.0688522028	
50	0	10.0	29.0	29.0211540.0687301927	
51	0	11.0	29.0	29.0195606.00279612673	
52	0	11.0	28.0	28.0191760.2595152656	
53	0	11.0	28.0	28.0191762.67208523033	
54	0	11.0	27.0	27.0189013.00676801289	
55	0	11.0	27.0	27.0189016.573306142	
56	0	11.0	26.0	26.0174726.20776265513	
57	0	11.0	25.0	25.0186814.9655777932	
58	0	11.0	26.0	26.0187366.9164684652	
59	0	11.0	25.0	25.0200550.99721032663	
60	0	10.0	25.0	25.0216486.1060705368	
61	0	10.0	25.0	25.0202750.8197423037	
62	0	9.0	25.0	25.0217034.91737044867	
63	0	10.0	25.0	25.0231320.2279795574	
64	0	11.0	25.0	25.0215386.63314163923	
65	0	11.0	25.0	25.0215389.04571160395	
66	0	11.0	25.0	25.0231320.27313546487	
67	0	11.0	25.0	25.0248352.42750172553	
68	0	12.0	25.0	25.0251649.96842975862	
69	0	13.0	24.0	24.0238463.31722614486	
70	0	13.0	24.0	24.0234068.3470928214	
71	0	13.0	24.0	24.0238462.53668869703	
72	0	13.0	25.0	25.0257693.5544096001	
73	0	13.0	25.0	25.0277475.57848071563	
74	0	12.0	24.0	24.0291759.9856180353	
75	0	13.0	24.0	24.0278023.5852137092	
76	0	13.0	25.0	25.0277474.1346642586	
77	0	13.0	25.0	25.0298902.11665812274	
78	0	13.0	25.0	25.0321430.5891855953	
79	0	13.0	25.0	25.0321432.42129064776	
80	0	14.0	25.0	25.0308794.20172650006	
81	0	13.0	26.0	26.0321979.42564931605	
82	0	13.0	26.0	26.0286813.1872701093	
83	0	13.0	26.0	26.0278024.30234668375	
84	0	13.0	27.0	27.0265386.9397093211	
85	0	13.0	26.0	26.0257695.43055109683	
86	0	13.0	27.0	27.0279672.89727860264	
87	0	13.0	27.0	27.0273081.045401514	
88	0	12.0	26.0	26.0271430.1533051655	
89	0	12.0	27.0	27.0253846.91531065904	
90	0	12.0	26.0	26.0252199.15540763907	
91	0	11.0	25.0	25.0266486.2776434116	
92	0	12.0	25.0	25.0251650.94123537152	
93	0	12.0	25.0	25.0270880.72807085206	
94	0	11.0	25.0	25.0285715.89290601684	
95	0	11.0	25.0	25.0266485.12367524765	
96	0	11.0	26.0	26.0267033.9847899909	
97	0	10.0	27.0	27.0268683.90687366837	
98	0	10.0	27.0	27.0284615.38507230725	
99	0	9.0	27.0	27.0301649.70815047395	
100	0	9.0	28.0	28.0323628.49434700946	
101	0	8.0	29.0	29.0341760.59458260785	
102	0	9.0	29.0	29.0327474.4765383797	
103	0	10.0	29.0	29.0330772.22580038564	
104	0	9.0	30.0	30.0352750.656113937	
105	0	10.0	30.0	30.0315386.3941492218	
106	0	9.0	30.0	30.0335715.89290601684	
107	0	9.0	30.0	30.0352747.6615397041	
108	0	8.0	30.0	30.0370883.26833908405	
109	0	9.0	31.0	31.0358793.629762604	
110	0	8.0	30.0	30.0356595.18535801297	
111	0	8.0	31.0	31.0376925.66651009704	
112	0	8.0	30.0	30.0370881.71046614123	
113	0	7.0	30.0	30.0390112.26061982906	
114	0	6.0	31.0	31.0416484.44952089683	
115	0	7.0	32.0	32.0403297.98491880856	
116	0	8.0	32.0	32.0384067.54125766526	
117	0	8.0	33.0	33.0392310.00138681737	
118	0	8.0	33.0	33.0371980.41801341966	
119	0	9.0	33.0	33.0353848.2224590531	
120	0	8.0	33.0	33.0383517.0734081134	
121	0	8.0	33.0	33.0392309.8816375907	
122	0	8.0	32.0	32.0374176.585640329	
123	0	8.0	33.0	33.0413737.2814932876	
124	0	8.0	33.0	33.0436265.34345546743	
125	0	8.0	34.0	34.0445608.8083266734	
126	0	8.0	33.0	33.0436267.3032587872	
127	0	8.0	34.0	34.0427473.5452295513	
128	0	8.0	35.0	35.0456046.2915484987	
129	0	8.0	35.0	35.0479672.7305676741	
130	0	7.0	35.0	35.0488463.9594329337	
131	0	8.0	34.0	34.0445606.8165757909	
132	0	7.0	35.0	35.0475276.9146046237	
133	0	8.0	36.0	36.0475278.2541084014	
134	0	7.0	35.0	35.0452748.6408619025	
135	0	8.0	35.0	35.0412089.45874878817	
136	0	8.0	34.0	34.0401650.3694053755	
137	0	7.0	35.0	35.0401651.9385549248	
138	0	8.0	35.0	35.0412088.501979542	
139	0	8.0	35.0	35.0391761.8436581056	
140	0	7.0	35.0	35.0431319.9629407866	
141	0	7.0	34.0	34.0451649.7553196456	
142	0	6.0	35.0	35.0451651.3005736235	
143	0	5.0	36.0	36.0484617.64863277896	
144	0	4.0	37.0	37.0497253.27661352203	
145	0	4.0	37.0	37.0499451.5156465133	
146	0	4.0	36.0	36.0486813.96596326405	
147	0	4.0	35.0	35.0456045.6402231445	
148	0	3.0	35.0	35.0498903.1895191739	
149	0	2.0	35.0	35.0523627.8617743606	
150	0	2.0	34.0	34.0533517.3635056837	
151	0	3.0	33.0	33.0499453.1170588224	
152	0	2.0	33.0	33.0524176.87548862235	
153	0	2.0	32.0	32.0495607.39063555055	
154	0	3.0	32.0	32.0491211.3903854874	
155	0	4.0	31.0	31.0460441.5107770421	
156	0	3.0	30.0	30.0478023.25964408333	
157	0	2.0	30.0	30.0502747.2532041754	
158	0	1.0	29.0	29.0528574.5306683811	
159	0	2.0	30.0	30.0482418.7807172766	
160	0	1.0	29.0	29.0484068.5385772182	
161	0	2.0	29.0	29.0477475.6503313166	
162	0	1.0	29.0	29.0484066.4634267086	
163	0	1.0	28.0	28.0480221.3874115114	
164	0	2.0	28.0	28.0454397.75714743487	
165	0	2.0	27.0	27.0451652.742391882	
166	0	2.0	28.0	28.0473628.7945977688	
167	0	1.0	28.0	28.0480221.3268806563	
168	0	1.0	27.0	27.0477474.5267051773	
169	0	1.0	26.0	26.0475826.66382248676	
170	0	1.0	26.0	26.0inf	
171	0	48.0	27.0	27.0inf	
172	0	48.0	27.0	27.0436266.375941013	
173	0	48.0	28.0	28.0454397.75714743487	
174	0	48.0	28.0	28.0480224.1709633106	
175	0	48.0	27.0	27.0451650.6703171525	
176	0	47.0	27.0	27.0408792.7554520849	
177	0	47.0	28.0	28.0411540.0687301927	
178	0	47.0	28.0	28.0429672.34742735355	
179	0	47.0	28.0	28.0429674.75999731827	
180	0	48.0	29.0	29.0433519.4162492543	
181	0	47.0	30.0	30.0438463.69121336896	
182	0	46.0	30.0	30.0414839.3407947884	
183	0	47.0	29.0	29.0433518.9044878788	
184	0	47.0	30.0	30.0457694.08645691414	
185	0	47.0	30.0	30.0438465.7576321936	
186	0	48.0	30.0	30.0457694.83674847294	
187	0	48.0	31.0	31.0488462.8200836438	
188	0	48.0	32.0	32.0476375.4051382328	
189	0	48.0	31.0	31.0469232.157345419	
190	0	49.0	30.0	30.0489013.1783408874	
191	0	49.0	30.0	30.0489015.4193379776	
192	0	49.0	29.0	29.0484067.653782663	
193	0	49.0	28.0	28.0inf	
194	0	0.0	28.0	28.0inf	
195	0	1.0	28.0	28.0inf	
196	0	49.0	28.0	28.0inf	
197	0	49.0	28.0	28.0519783.8043799826	
198	0	48.0	28.0	28.0515386.23216602235	
199	0	48.0	27.0	27.0535167.2561362304	
200	0	47.0	28.0	28.0513187.9849119939	
201	1	21.0	35.0	35.0128572.7894742022	
202	1	21.0	35.0	35.0128572.7894742022	
203	1	21.0	36.0	36.0142860.9163298819	
204	1	21.0	34.0	34.0142859.69089141965	
205	1	21.0	35.0	35.0130220.79797680408	
206	1	21.0	35.0	35.0118684.74900830725	
207	1	20.0	34.0	34.0130221.97340015286	
208	1	20.0	34.0	34.0118684.78651348609	
209	1	20.0	35.0	35.0135165.84298166956	
210	1	19.0	34.0	34.0130769.50642560772	
211	1	18.0	34.0	34.0126375.40513823276	
212	1	18.0	34.0	34.0137914.08806440048	
213	1	18.0	34.0	34.0150550.04044108008	
214	1	18.0	35.0	35.0160989.60088064053	
215	1	18.0	35.0	35.0148354.23793866823	
216	1	18.0	36.0	36.0159890.69978173974	
217	1	18.0	36.0	36.0148352.23824327835	
218	1	18.0	35.0	35.0136816.78871305063	
219	1	18.0	36.0	36.0137914.03824956957	
220	1	18.0	35.0	35.0117034.51369384314	
221	1	17.0	35.0	35.0125278.15560171385	
222	1	18.0	35.0	35.0117034.57422469818	
223	1	18.0	35.0	35.0108793.62181809613	
224	1	18.0	35.0	35.0117037.55132811984	
225	1	19.0	35.0	35.0101648.61597035533	
226	1	20.0	35.0	35.095606.00279612675	
227	1	20.0	35.0	35.0103846.7437377834	
228	1	21.0	35.0	35.098901.68879272846	
229	1	21.0	36.0	36.0110440.15033119	
230	1	22.0	36.0	36.0106595.01378513775	
231	1	22.0	37.0	37.0119232.37642250038	
232	1	23.0	37.0	37.0116484.1063751465	
233	1	23.0	37.0	37.0108245.93420138177	
234	1	23.0	38.0	38.0130222.06284170707	
235	1	23.0	39.0	39.0136814.99882000944	
236	1	22.0	38.0	38.0124727.66079185707	
237	1	22.0	39.0	39.0147804.9589620929	
238	1	22.0	38.0	38.0132967.62285866254	
239	1	21.0	38.0	38.0136815.77640020693	
240	1	21.0	39.0	39.0151648.94153998155	
241	1	20.0	39.0	39.0156597.0084932704	
242	1	21.0	38.0	38.0136814.9655777932	
243	1	20.0	38.0	38.0141759.2595152656	
244	1	19.0	38.0	38.0147803.58591684754	
245	1	18.0	39.0	39.0169782.40911011814	
246	1	18.0	39.0	39.0169783.80437998258	
247	1	17.0	38.0	38.0163189.26973329825	
248	1	18.0	38.0	38.0146705.4875444634	
249	1	17.0	37.0	37.0125824.70518495078	
250	1	17.0	38.0	38.0147804.69369977879	
251	1	18.0	39.0	39.0154397.22117701138	
252	1	18.0	40.0	40.0164286.47575021943	
253	1	18.0	39.0	39.0148355.2502515122	
254	1	17.0	40.0	40.0172528.7541495778	
255	1	16.0	40.0	40.0181870.14962515573	
256	1	16.0	40.0	40.0181872.56219512044	
257	1	15.0	40.0	40.0192308.1011001436	
258	1	14.0	40.0	40.0203848.73844591665	
259	1	15.0	39.0	39.0176374.66269012113	
260	1	15.0	38.0	38.0156594.00607471235	
261	1	16.0	37.0	37.0132418.75221761625	
262	1	14.0	38.0	38.0142863.55281634603	
263	1	17.0	37.0	37.0119781.60473462155	
264	1	16.0	35.0	35.0104397.15105648049	
265	1	15.0	35.0	35.0114837.18259218869	
266	1	15.0	35.0	35.0108245.84995918265	
267	1	14.0	36.0	36.0137914.6123093293	
268	1	15.0	37.0	37.0139013.5881876851	
269	1	16.0	37.0	37.0125826.43984157019	
270	1	16.0	37.0	37.0124176.47549826714	
271	1	15.0	37.0	37.0134067.71283054046	
272	1	15.0	37.0	37.0134616.87276337162	
273	1	14.0	36.0	36.0133517.82488939262	
274	1	15.0	35.0	35.0110441.94650614278	
275	1	14.0	35.0	35.0123628.63764376809	
276	1	14.0	35.0	35.0126376.21097338913	
277	1	14.0	34.0	34.0113187.74622419372	
278	1	14.0	35.0	35.0121979.93741069075	
279	1	14.0	34.0	34.0110990.75484880453	
280	1	14.0	35.0	35.0121430.63195411455	
281	1	13.0	35.0	35.0134068.33010133175	
282	1	13.0	35.0	35.0134617.78551272902	
283	1	12.0	36.0	36.0159891.92189693253	
284	1	13.0	36.0	36.0134067.12339583243	
285	1	13.0	36.0	36.0145606.7484287617	
286	1	13.0	35.0	35.0134068.51866569687	
287	1	13.0	36.0	36.0146155.68666032917	
288	1	12.0	35.0	35.0159343.07236754667	
289	1	12.0	37.0	37.0172528.23399197735	
290	1	12.0	37.0	37.0171980.6115650421	
291	1	11.0	37.0	37.0186815.7764002071	
292	1	12.0	37.0	37.0187364.72980715655	
293	1	12.0	37.0	37.0174177.77451330583	
294	1	13.0	37.0	37.0158792.9875558152	
295	1	13.0	37.0	37.0158795.81069107263	
296	1	13.0	38.0	38.0171978.2863000261	
297	1	12.0	38.0	38.0186815.4665713652	
298	1	12.0	38.0	38.0185716.23605176737	
299	1	11.0	39.0	39.0215386.39414922177	
300	1	11.0	37.0	37.0200553.5883476992	
301	1	11.0	39.0	39.0215384.61584153763	
302	1	11.0	40.0	40.0231319.27121031086	
303	1	10.0	40.0	40.0247253.33714437706	
304	1	10.0	41.0	41.0264287.3214774455	
305	1	9.0	41.0	41.0281321.5464263384	
306	1	10.0	42.0	42.0282418.1117783573	
307	1	10.0	42.0	42.0282970.6348668967	
308	1	11.0	42.0	42.0266485.2952481229	
309	1	11.0	42.0	42.0267032.96748988965	
310	1	11.0	42.0	42.0268684.8856763696	
311	1	11.0	41.0	41.0248902.28823099803	
312	1	11.0	41.0	41.0250552.22870083497	
313	1	10.0	41.0	41.0264836.8736957832	
314	1	10.0	42.0	42.0284616.2191654838	
315	1	9.0	42.0	42.0301649.92393526994	
316	1	9.0	43.0	43.0320881.1545872072	
317	1	8.0	43.0	43.0341759.47998494655	
318	1	9.0	43.0	43.0327473.05683330225	
319	1	9.0	44.0	44.0347803.804993929	
320	1	10.0	44.0	44.0330769.88209167373	
321	1	11.0	45.0	45.0336264.7024597002	
322	1	11.0	45.0	45.0332420.603852534	
323	1	11.0	46.0	46.0358793.5274600097	
324	1	10.0	47.0	47.0398354.2361122244	
325	1	12.0	46.0	46.0382418.19938655844	
326	1	11.0	46.0	46.0363736.8632175697	
327	1	10.0	46.0	46.0385716.1262207688	
328	1	10.0	47.0	47.0403298.1069679974	
329	1	10.0	47.0	47.0426377.3998463655	
330	1	9.0	48.0	48.0438463.4386774573	
331	1	8.0	47.0	47.0444507.5122625184	
332	1	8.0	47.0	47.0444510.73382845277	
333	1	8.0	47.0	47.0451650.085980566	
334	1	8.0	48.0	48.0495606.74842876167	
335	1	9.0	46.0	46.0418138.3176745295	
336	1	8.0	48.0	48.0502202.38649295474	
337	1	8.0	0.0	0.0inf	
338	1	8.0	49.0	49.0inf	
339	1	8.0	48.0	48.0476375.2431550334	
340	1	9.0	47.0	47.0433518.67284638196	
341	1	9.0	47.0	47.0433521.38479221944	
342	1	10.0	47.0	47.0424727.70050265134	
343	1	11.0	46.0	46.0385166.5440254535	
344	1	11.0	47.0	47.0400550.2850995498	
345	1	10.0	47.0	47.0416485.9125189142	
346	1	11.0	48.0	48.0409344.06659569097	
347	1	9.0	48.0	48.0451102.1109139629	
348	1	10.0	48.0	48.0441209.67119799147	
349	1	11.0	47.0	47.0400550.2604181199	
350	1	11.0	47.0	47.0393409.00959429424	
351	1	12.0	47.0	47.0378572.47988422675	
352	1	12.0	46.0	46.0348903.2612426052	
353	1	11.0	45.0	45.0341212.1945754754	
354	1	12.0	45.0	45.0321429.8530506767	
355	1	13.0	45.0	45.0307692.8975839377	
356	1	12.0	45.0	45.0312639.5519672617	
357	1	12.0	44.0	44.0321434.6496993306	
358	1	13.0	46.0	46.0358792.8255726158	
359	1	13.0	47.0	47.0358795.6391181974	
360	1	13.0	47.0	47.0364836.728152288	
361	1	14.0	48.0	48.0371981.4898101894	
362	1	13.0	48.0	48.0352198.66694142175	
363	1	14.0	48.0	48.0370881.0712166025	
364	1	14.0	47.0	47.0341209.9895084855	
365	1	14.0	47.0	47.0346156.6393695011	
366	1	15.0	47.0	47.0329672.0234085604	
367	1	16.0	46.0	46.0295606.174369002	
368	1	16.0	47.0	47.0319232.95856066834	
369	1	16.0	47.0	47.0319234.1822576566	
370	1	17.0	47.0	47.0309893.7117899737	
371	1	16.0	48.0	48.0343957.32557814923	
372	1	16.0	49.0	49.0inf	
373	1	16.0	0.0	0.0inf	
374	1	16.0	1.0	1.0369780.8096718496	
375	1	15.0	1.0	1.0380220.80694659916	
376	1	15.0	0.0	0.0407146.75841859303	
377	1	14.0	1.0	1.0391761.2367893967	
378	1	14.0	0.0	0.0423627.9699318353	
379	1	15.0	0.0	0.0418134.8008646385	
380	1	16.0	0.0	0.0inf	
381	1	15.0	49.0	49.0inf	
382	1	14.0	49.0	49.0402749.1681799215	
383	1	13.0	49.0	49.0409342.2060015354	
384	1	13.0	48.0	48.0383517.53482928156	
385	1	12.0	48.0	48.0403298.6536341849	
386	1	13.0	48.0	48.0396706.0578631922	
387	1	11.0	49.0	49.0410441.4554992457	
388	1	13.0	49.0	49.0422528.2339919777	
389	1	13.0	48.0	48.0396705.8813030593	
390	1	14.0	49.0	49.0392313.5070470214	
391	1	14.0	0.0	0.0inf	
392	1	15.0	1.0	1.0398352.92997375363	
393	1	16.0	1.0	1.0387914.10566911177	
394	1	16.0	1.0	1.0387917.5182390765	
395	1	16.0	1.0	1.0354947.4679719419	
396	1	17.0	0.0	0.0414836.3631348591	
397	1	16.0	2.0	2.0378572.3905125983	
398	1	16.0	1.0	1.0396156.4453305421	
399	1	16.0	0.0	0.0432421.51373814297	
400	1	16.0	1.0	1.0405495.503721664	
401	2	11.0	1.0	1.0424178.84162823064	
402	2	11.0	1.0	1.0424180.25450281275	
403	2	10.0	1.0	1.0440113.3204368787	
404	2	11.0	1.0	1.0424177.43136755534	
405	2	11.0	1.0	1.0424726.2575774857	
406	2	11.0	1.0	1.0426374.6531004453	
407	2	10.0	2.0	2.0442309.43616748584	
408	2	11.0	2.0	2.0400550.05003075616	
409	2	11.0	3.0	3.0374178.2801463946	
410	2	11.0	2.0	2.0398902.6711880172	
411	2	11.0	2.0	2.0398352.69966444635	
412	2	10.0	3.0	3.0389562.7923848056	
413	2	10.0	2.0	2.0414286.5219354519	
414	2	10.0	1.0	1.0457144.45436577295	
415	2	9.0	2.0	2.0431870.0822056135	
416	2	9.0	1.0	1.0459342.2060015354	
417	2	8.0	1.0	1.0477475.1340510366	
418	2	8.0	0.0	0.0459342.72795355855	
419	2	9.0	0.0	0.0489013.29343312216	
420	2	10.0	0.0	0.0inf	
421	2	12.0	49.0	49.0inf	
422	2	11.0	48.0	48.0403298.4471564968	
423	2	11.0	48.0	48.0407144.4643345883	
424	2	11.0	47.0	47.0382419.1896093136	
425	2	12.0	47.0	47.0367583.43533944146	
426	2	13.0	47.0	47.0353848.17160317773	
427	2	13.0	47.0	47.0353849.9752085699	
428	2	13.0	47.0	47.0350004.5842951531	
429	2	12.0	47.0	47.0367583.1808733662	
430	2	12.0	48.0	48.0388463.1552429454	
431	2	13.0	48.0	48.0371979.568638898	
432	2	12.0	48.0	48.0inf	
433	2	15.0	0.0	0.0inf	
434	2	13.0	1.0	1.0397804.21555922163	
435	2	13.0	2.0	2.0397806.67316233076	
436	2	13.0	1.0	1.0397805.61082908476	
437	2	14.0	1.0	1.0385167.1195625303	
438	2	14.0	1.0	1.0383518.8795518812	
439	2	15.0	1.0	1.0371980.907624699	
440	2	15.0	0.0	0.0400550.85422074416	
441	2	14.0	0.0	0.0inf	
442	2	14.0	48.0	48.0inf	
443	2	13.0	48.0	48.0inf	
444	2	14.0	1.0	1.0inf	
445	2	14.0	49.0	49.0inf	
446	2	13.0	0.0	0.0inf	
447	2	14.0	49.0	49.0inf	
448	2	13.0	0.0	0.0inf	
449	2	11.0	48.0	48.0inf	
450	2	12.0	49.0	49.0409343.8691557211	
451	2	12.0	48.0	48.0384067.550847341	
452	2	13.0	47.0	47.0345605.9422652717	
453	2	14.0	46.0	46.0345057.13438484346	
454	2	13.0	45.0	45.0309344.06270734355	
455	2	13.0	46.0	46.0321432.7036429539	
456	2	13.0	47.0	47.0345057.3410903428	
457	2	13.0	47.0	47.0345605.44691719377	
458	2	14.0	46.0	46.0309342.850181826	
459	2	14.0	45.0	45.0286267.1396304207	
460	2	15.0	45.0	45.0275276.0666476343	
461	2	14.0	45.0	45.0288464.0343591194	
462	2	13.0	45.0	45.0299452.9704219446	
463	2	13.0	46.0	46.0323627.65524847887	
464	2	12.0	46.0	46.0326376.10702562664	
465	2	13.0	46.0	46.0326376.02240902407	
466	2	13.0	46.0	46.0330222.637676346	
467	2	12.0	45.0	45.0321430.1533051655	
468	2	11.0	45.0	45.0332418.28517767595	
469	2	11.0	45.0	45.0354949.00387032714	
470	2	10.0	46.0	46.0374726.89150668174	
471	2	9.0	46.0	46.0398353.76907228417	
472	2	9.0	47.0	47.0420331.3717533115	
473	2	10.0	48.0	48.0428022.57750328403	
474	2	11.0	48.0	48.0448903.6279572638	
475	2	11.0	49.0	49.0407144.42942977545	
476	2	11.0	49.0	49.0429123.6402807746	
477	2	11.0	48.0	48.0403301.2875918561	
478	2	12.0	49.0	49.0414287.49305032066	
479	2	11.0	49.0	49.0429122.4863126103	
480	2	11.0	48.0	48.0403297.72105372715	
481	2	11.0	47.0	47.0378574.01815844845	
482	2	11.0	47.0	47.0375825.783015907	
483	2	12.0	47.0	47.0360990.61818074214	
484	2	12.0	47.0	47.0363738.2814932876	
485	2	12.0	47.0	47.0363740.83073131467	
486	2	13.0	48.0	48.0374727.0534898811	
487	2	13.0	47.0	47.0350001.60719173116	
488	2	13.0	47.0	47.0353847.17160317773	
489	2	13.0	47.0	47.0358792.81598293997	
490	2	13.0	48.0	48.0383518.4836687961	
491	2	13.0	49.0	49.0409341.24923228915	
492	2	13.0	49.0	49.0inf	
493	2	13.0	0.0	0.0inf	
494	2	13.0	1.0	1.0400550.2120139556	
495	2	13.0	1.0	1.0404396.19428723434	
496	2	12.0	2.0	2.0378575.5314648644	
497	2	13.0	1.0	1.0409341.6143567863	
498	2	13.0	2.0	2.0383519.3409730493	
499	2	14.0	2.0	2.0365934.9706046961	
500	2	14.0	3.0	3.0337364.7580832732	
501	2	13.0	4.0	4.0350002.9038871561	
502	2	14.0	4.0	4.0313737.66740755795	
503	2	14.0	3.0	3.0334616.39243221906	
504	2	13.0	2.0	2.0371981.01700917684	
505	2	14.0	2.0	2.0357693.67756487714	
506	2	13.0	2.0	2.0369782.640751615	
507	2	13.0	3.0	3.0345605.6772265009	
508	2	14.0	4.0	4.0321979.80074262834	
509	2	13.0	4.0	4.0321981.43500490935	
510	2	14.0	4.0	4.0309343.02985059825	
511	2	15.0	4.0	4.0299454.0112768653	
512	2	16.0	3.0	3.0287364.9075932365	
513	2	15.0	4.0	4.0297804.37476051407	
514	2	15.0	4.0	4.0310990.07807461417	
515	2	14.0	5.0	5.0291210.88342976663	
516	2	15.0	5.0	5.0279671.0911348348	
517	2	14.0	5.0	5.0295055.8250441453	
518	2	13.0	6.0	6.0286264.69127986324	
519	2	13.0	5.0	5.0307694.3763052069	
520	2	12.0	5.0	5.0317585.1379296848	
521	2	13.0	4.0	4.0326375.81570352474	
522	2	13.0	5.0	5.0314838.2876939539	
523	2	12.0	4.0	4.0337364.70782840915	
524	2	11.0	4.0	4.0352200.2030951466	
525	2	12.0	5.0	5.0328024.434568463	
526	2	12.0	5.0	5.0314837.58580656	
527	2	12.0	5.0	5.0335716.1967006714	
528	2	11.0	4.0	4.0350002.1893298984	
529	2	11.0	4.0	4.0350004.4303269886	
530	2	12.0	4.0	4.0335165.852921859	
531	2	13.0	4.0	4.0321430.5891855953	
532	2	14.0	5.0	5.0321431.8778272494	
533	2	13.0	5.0	5.0298901.5361932105	
534	2	13.0	6.0	6.0277475.11207229027	
535	2	14.0	5.0	5.0286265.6853295885	
536	2	15.0	5.0	5.0275277.7203058801	
537	2	15.0	4.0	4.0297254.15092404134	
538	2	14.0	4.0	4.0309342.60967814096	
539	2	15.0	4.0	4.0299452.3282151558	
540	2	14.0	4.0	4.0310990.02874603483	
541	2	13.0	4.0	4.0323628.39138339745	
542	2	14.0	5.0	5.0299454.8969830482	
543	2	13.0	4.0	4.0323628.7945977688	
544	2	13.0	5.0	5.0340111.8404473717	
545	2	13.0	4.0	4.0330221.2919758434	
546	2	13.0	5.0	5.0307693.2453886112	
547	2	14.0	5.0	5.0291211.07383071806	
548	2	13.0	5.0	5.0301100.7131057237	
549	2	14.0	6.0	6.0267036.37039965135	
550	2	13.0	6.0	6.0282417.8467395865	
551	2	13.0	6.0	6.0286266.32086349896	
552	2	14.0	6.0	6.0269781.45800692454	
553	2	15.0	6.0	6.0262089.6559477056	
554	2	15.0	6.0	6.0258243.21789008487	
555	2	16.0	5.0	5.0269232.7195682508	
556	2	15.0	4.0	4.0302200.2231691974	
557	2	16.0	4.0	4.0289013.17834088736	
558	2	17.0	4.0	4.0289015.12680923764	
559	2	16.0	3.0	3.0312638.3803943865	
560	2	16.0	2.0	2.0337363.07465474895	
561	2	16.0	1.0	1.0363190.714462549	
562	2	15.0	2.0	2.0347803.77487281046	
563	2	15.0	1.0	1.0376376.0124402087	
564	2	16.0	2.0	2.0340111.43677076616	
565	2	16.0	2.0	2.0343958.1125689432	
566	2	17.0	1.0	1.0360441.74976945884	
567	2	17.0	1.0	1.0360443.25397434225	
568	2	17.0	1.0	1.0365387.0315723162	
569	2	16.0	1.0	1.0374728.1406329753	
570	2	16.0	0.0	0.0407694.0164780454	
571	2	18.0	1.0	1.0inf	
572	2	16.0	49.0	49.0inf	
573	2	16.0	48.0	48.0inf	
574	2	17.0	1.0	1.0inf	
575	2	16.0	1.0	1.0369781.82697195094	
576	2	16.0	1.0	1.0365935.08369108976	
577	2	16.0	1.0	1.0363187.7084175201	
578	2	16.0	0.0	0.0inf	
579	2	15.0	49.0	49.0inf	
580	2	16.0	0.0	0.0inf	
581	2	17.0	48.0	48.0inf	
582	2	18.0	49.0	49.0345606.1394641891	
583	2	17.0	49.0	49.0353848.7384459164	
584	2	18.0	49.0	49.0343956.7467161375	
585	2	19.0	48.0	48.0318133.4147927442	
586	2	19.0	48.0	48.0310441.7227810668	
587	2	20.0	47.0	47.0279672.8255679107	
588	2	21.0	48.0	48.0299452.16623195645	
589	2	21.0	49.0	49.0325825.4140508806	
590	2	21.0	48.0	48.0301650.47236898745	
591	2	20.0	48.0	48.0306597.81748924	
592	2	21.0	48.0	48.0304397.31325622275	
593	2	21.0	47.0	47.0276925.32547134697	
594	2	20.0	47.0	47.0281870.7214551521	
595	2	20.0	46.0	46.0258242.8095545562	
596	2	21.0	46.0	46.0251649.89830922778	
597	2	21.0	47.0	47.0275276.7938876245	
598	2	22.0	47.0	47.0270880.29290891805	
599	2	22.0	47.0	47.0270883.05219968146	
600	2	23.0	48.0	48.0292859.33188242454	
601	3	45.0	28.0	28.0515387.84535198024	
602	3	46.0	28.0	28.0513187.6931760135	
603	3	47.0	27.0	27.0534066.4634267086	
604	3	47.0	27.0	27.0558792.1038721631	
605	3	47.0	26.0	26.0557144.4294297755	
606	3	47.0	26.0	26.0582970.0839752214	
607	3	48.0	25.0	25.0607145.7898756278	
608	3	49.0	27.0	27.0inf	
609	3	0.0	27.0	27.0inf	
610	3	1.0	25.0	25.0632968.8117316394	
611	3	0.0	26.0	26.0633519.0880277676	
612	3	1.0	26.0	26.0633521.0854163474	
613	3	1.0	25.0	25.0659891.8886547163	
614	3	1.0	25.0	25.0632969.0507240568	
615	3	1.0	25.0	25.0632970.8828291093	
616	3	2.0	25.0	25.0607143.8780682489	
617	3	3.0	25.0	25.0556594.6890941287	
618	3	4.0	24.0	24.0533519.6933315453	
619	3	2.0	23.0	23.0532419.7717474815	
620	3	2.0	23.0	23.0558792.720547272	
621	3	1.0	23.0	23.0583517.4839734054	
622	3	1.0	23.0	23.0635167.8861730235	
623	3	1.0	22.0	22.0637913.0883690101	
624	3	1.0	22.0	22.0612089.3002025619	
625	3	1.0	23.0	23.0584617.1633799911	
626	3	1.0	22.0	22.0587363.6551196611	
627	3	1.0	21.0	21.0591210.3984005224	
628	3	1.0	21.0	21.0567585.0241609267	
629	3	1.0	21.0	21.0591211.6688176602	
630	3	0.0	20.0	20.0623078.6072561116	
631	3	0.0	21.0	21.0inf	
632	3	49.0	21.0	21.0inf	
633	3	0.0	22.0	22.0inf	
634	3	1.0	21.0	21.0615935.6125949421	
635	3	1.0	21.0	21.0641760.2595152656	
636	3	0.0	21.0	21.0641763.0814438844	
637	3	1.0	20.0	20.0646704.8885200802	
638	3	1.0	19.0	19.0652751.6519419181	
639	3	1.0	20.0	20.0673627.2536878929	
640	3	2.0	20.0	20.0inf	
641	3	2.0	20.0	20.0inf	
642	3	2.0	21.0	21.0590111.5742890786	
643	3	1.0	20.0	20.0620880.667539997	
644	3	1.0	20.0	20.0646704.9038950278	
645	3	1.0	19.0	19.0652748.2355994638	
646	3	1.0	18.0	18.0inf	
647	3	0.0	18.0	18.0inf	
648	3	0.0	18.0	18.0686814.1850403454	
649	3	1.0	17.0	17.0659893.6967966832	
650	3	0.0	17.0	17.0695056.2275556672	
651	3	0.0	16.0	16.0678573.4823535657	
652	3	1.0	18.0	18.0642309.6734146088	
653	3	0.0	17.0	17.0644507.178684683	
654	3	0.0	18.0	18.0660989.9771849749	
655	3	0.0	19.0	19.0634067.3428583853	
656	3	0.0	19.0	19.0653847.8627067722	
657	3	1.0	19.0	19.0602198.7572139292	
658	3	1.0	19.0	19.0626924.5365714036	
659	3	2.0	20.0	20.0595057.5442316413	
660	3	3.0	20.0	20.0596156.3705510875	
661	3	4.0	19.0	19.0546705.0149370481	
662	3	3.0	20.0	20.0545606.2361108786	
663	3	3.0	19.0	19.0576376.1507708677	
664	3	3.0	18.0	18.0558794.3316499981	
665	3	2.0	18.0	18.0608243.0398638635	
666	3	3.0	17.0	17.0634067.916918145	
667	3	3.0	17.0	17.0617584.7704067837	
668	3	2.0	17.0	17.0642310.6852429835	
669	3	4.0	17.0	17.0644506.0238662692	
670	3	4.0	16.0	16.0630220.5416842855	
671	3	4.0	17.0	17.0620879.4916936693	
672	3	4.0	18.0	18.0585716.0295740792	
673	3	4.0	18.0	18.0612638.9842543276	
674	3	4.0	19.0	19.0605497.3953584806	
675	3	2.0	19.0	19.0inf	
676	3	4.0	19.0	19.0inf	
677	3	3.0	18.0	18.0583519.4785476385	
678	3	4.0	19.0	19.0552750.2477784078	
679	3	3.0	19.0	19.0551649.2846857323	
680	3	2.0	19.0	19.0601103.8497195637	
681	3	3.0	20.0	20.0570331.9643170414	
682	3	3.0	21.0	21.0591209.3205695659	
683	3	1.0	20.0	20.0inf	
684	3	0.0	24.0	24.0inf	
685	3	1.0	21.0	21.0641759.8489499729	
686	3	2.0	21.0	21.0615935.019948447	
687	3	3.0	21.0	21.0591209.8430856754	
688	3	4.0	20.0	20.0inf	
689	3	3.0	20.0	20.0inf	
690	3	4.0	19.0	19.0578572.8166860784	
691	3	4.0	18.0	18.0559891.656550986	
692	3	5.0	18.0	18.0537363.6551196611	
693	3	6.0	18.0	18.0515935.6731257971	
694	3	6.0	18.0	18.0491210.8089658151	
695	3	6.0	18.0	18.0491213.2215357798	
696	3	6.0	18.0	18.0515934.0663909886	
697	3	6.0	18.0	18.0541761.8436581056	
698	3	7.0	18.0	18.0495606.2227866002	
699	3	8.0	18.0	18.0476376.62420030986	
700	3	7.0	17.0	17.0503847.75022736733	
701	3	6.0	17.0	17.0inf	
702	3	7.0	16.0	16.0inf	
703	3	6.0	16.0	16.0inf	
704	3	5.0	16.0	16.0580770.794086354	
705	3	4.0	16.0	16.0603299.6732169725	
706	3	5.0	16.0	16.0554946.7785481814	
707	3	5.0	17.0	17.0inf	
708	3	7.0	17.0	17.0inf	
709	3	5.0	18.0	18.0590112.2429342562	
710	3	6.0	18.0	18.0568685.2528656278	
711	3	5.0	19.0	19.0582970.0279981879	
712	3	5.0	18.0	18.0563190.2165534976	
713	3	6.0	19.0	19.0534618.3173481553	
714	3	5.0	19.0	19.0550000.542387424	
715	3	4.0	20.0	20.0572531.6484870961	
716	3	5.0	19.0	19.0556044.8890813368	
717	3	6.0	20.0	20.0528572.8322427229	
718	3	5.0	20.0	20.0524178.2499532008	
719	3	5.0	21.0	21.0494506.674432228	
720	3	5.0	21.0	21.0493408.2005983246	
721	3	5.0	20.0	20.0498353.5593380341	
722	3	5.0	20.0	20.0475825.783015907	
723	3	5.0	21.0	21.0470880.72807085206	
724	3	6.0	21.0	21.0449452.56720757333	
725	3	7.0	20.0	20.0449453.54238584073	
726	3	6.0	21.0	21.0449455.7686212046	
727	3	7.0	21.0	21.0429121.9304336773	
728	3	7.0	20.0	20.0457695.2742238023	
729	3	6.0	20.0	20.0454399.00776228885	
730	3	6.0	19.0	19.0484066.8671033146	
731	3	6.0	20.0	20.0502749.1681799215	
732	3	6.0	21.0	21.0473078.66693671665	
733	3	6.0	21.0	21.0497802.8738060707	
734	3	7.0	21.0	21.0503298.9271635434	
735	3	8.0	22.0	22.0499451.85147236264	
736	3	8.0	22.0	22.0480222.8312279688	
737	3	8.0	21.0	21.0458243.35546467407	
738	3	7.0	22.0	22.0473627.9904077806	
739	3	7.0	23.0	23.0496704.8433641728	
740	3	6.0	23.0	23.0517034.9847899909	
741	3	6.0	23.0	23.0517036.55163272924	
742	3	6.0	24.0	24.0inf	
743	3	7.0	22.0	22.0inf	
744	3	7.0	24.0	24.0inf	
745	3	7.0	25.0	25.0521980.8285787119	
746	3	7.0	25.0	25.0494506.4607014584	
747	3	6.0	26.0	26.0514837.9851312449	
748	3	7.0	26.0	26.0495058.17502230994	
749	3	6.0	26.0	26.0542309.3764868808	
750	3	7.0	25.0	25.0inf	
751	3	7.0	25.0	25.0inf	
752	3	7.0	25.0	25.0475276.95584607375	
753	3	7.0	26.0	26.0475277.3381485049	
754	3	7.0	25.0	25.0475279.540278938	
755	3	8.0	26.0	26.0475825.1935811997	
756	3	8.0	27.0	27.0477473.5541993464	
757	3	7.0	27.0	27.0496706.31813824835	
758	3	8.0	27.0	27.0451649.25631898176	
759	3	8.0	28.0	28.0429671.09113483486	
760	3	8.0	27.0	27.0426925.8227419402	
761	3	9.0	27.0	27.0385166.3818257113	
762	3	9.0	25.0	25.0383518.6003760184	
763	3	8.0	25.0	25.0401101.0904287995	
764	3	8.0	25.0	25.0401102.3141257885	
765	3	8.0	26.0	26.0401652.4991083148	
766	3	9.0	25.0	25.0382969.2826803867	
767	3	10.0	26.0	26.0366485.6031742268	
768	3	8.0	26.0	26.0407143.6933868163	
769	3	9.0	25.0	25.0431321.10229007655	
770	3	8.0	25.0	25.0424725.9976376714	
771	3	8.0	26.0	26.0425277.36794738425	
772	3	7.0	26.0	26.0469231.7770476037	
773	3	6.0	27.0	27.0491211.07383071806	
774	3	7.0	28.0	28.0473629.77699305816	
775	3	6.0	28.0	28.0469231.80554726406	
776	3	6.0	27.0	27.0442860.13788829773	
777	3	7.0	27.0	27.0446155.21602641564	
778	3	8.0	25.0	25.0379121.77119751804	
779	3	8.0	25.0	25.0420880.68056664587	
780	3	8.0	26.0	26.0401650.93624811445	
781	3	7.0	26.0	26.0398354.61488314293	
782	3	7.0	25.0	25.0420331.51083615335	
783	3	6.0	25.0	25.0418134.11784522183	
784	3	7.0	25.0	25.0376375.4383804491	
785	3	6.0	26.0	26.0397255.3464294433	
786	3	6.0	27.0	27.0420330.9519517756	
787	3	6.0	28.0	28.0423078.5302686543	
788	3	6.0	28.0	28.0401650.764675239	
789	3	6.0	28.0	28.0423080.49007197405	
790	3	7.0	28.0	28.0381318.94564068544	
791	3	8.0	28.0	28.0362091.5139877759	
792	3	7.0	27.0	27.0378573.3789089102	
793	3	8.0	26.0	26.0357694.49702220614	
794	3	7.0	25.0	25.0357694.9148840389	
795	3	8.0	25.0	25.0357144.874899881	
796	3	8.0	25.0	25.0357147.28746984573	
797	3	7.0	25.0	25.0376374.64413065027	
798	3	6.0	24.0	24.0376923.7007290271	
799	3	6.0	24.0	24.0376923.7007290271	