ITEM: TIMESTEP
4
ITEM: NUMBER OF ATOMS40000
ITEM: BOX BOUNDS pp pp pp
0 50
0 50
0 50
ITEM: ATOMS id mol type x y z E
1	0	6.0	27.0	27.0545001.8218360236	
2	0	6.0	26.0	26.0571669.2658433629	
3	0	7.0	25.0	25.0540003.2098150618	
4	0	7.0	26.0	26.0571669.7895254558	
5	0	6.0	26.0	26.0571667.6328626305	
6	0	6.0	25.0	25.0570835.5304439527	
7	0	7.0	24.0	24.0540835.6273207043	
8	0	7.0	23.0	23.0514168.17842272983	
9	0	6.0	23.0	23.0545001.6071917311	
10	0	6.0	24.0	24.0542501.6071917311	
11	0	6.0	24.0	24.0515001.01775702386	
12	0	6.0	24.0	24.0489167.5525192897	
13	0	6.0	25.0	25.0464169.3045174993	
14	0	5.0	26.0	26.0475002.02404637187	
15	0	6.0	25.0	25.0441667.67448350106	
16	0	7.0	25.0	25.0433336.26606610435	
17	0	8.0	25.0	25.0381668.0703379609	
18	0	8.0	26.0	26.0405002.19084116665	
19	0	7.0	26.0	26.0458335.17383981636	
20	0	8.0	27.0	27.0431668.94928859355	
21	0	9.0	26.0	26.0401668.5828239457	
22	0	10.0	26.0	26.0401669.3870139339	
23	0	10.0	27.0	27.0378335.4956748397	
24	0	9.0	28.0	28.0408334.73700462724	
25	0	10.0	28.0	28.0408334.61495543865	
26	0	11.0	28.0	28.0384168.27385839785	
27	0	11.0	28.0	28.0411670.09699365526	
28	0	11.0	28.0	28.0384168.68442369055	
29	0	11.0	27.0	27.0384169.05273324903	
30	0	12.0	28.0	28.0335834.61495543865	
31	0	13.0	28.0	28.0315001.60719173116	
32	0	13.0	28.0	28.0290834.94052506454	
33	0	13.0	27.0	27.0286667.66489382525	
34	0	14.0	27.0	27.0267503.02143495163	
35	0	13.0	27.0	27.0264169.05273324903	
36	0	14.0	27.0	27.0249168.023168789	
37	0	14.0	28.0	28.0268334.2284142876	
38	0	13.0	28.0	28.0290834.1167765851	
39	0	13.0	29.0	29.0296667.9115310865	
40	0	12.0	29.0	29.0341667.5713372968	
41	0	11.0	30.0	30.0371668.7588876421	
42	0	11.0	30.0	30.0397503.02143495163	
43	0	10.0	30.0	30.0395834.95011474035	
44	0	10.0	29.0	29.0364169.147318667	
45	0	10.0	30.0	30.0371668.27385839785	
46	0	9.0	30.0	30.0397503.96622537344	
47	0	10.0	29.0	29.0341669.2203220754	
48	0	10.0	29.0	29.0341671.2336617176	
49	0	9.0	29.0	29.0315000.7614645048	
50	0	10.0	29.0	29.0320834.94052506454	
51	0	10.0	28.0	28.0296668.27385839785	
52	0	11.0	28.0	28.0290835.35109035723	
53	0	11.0	28.0	28.0290837.76366032194	
54	0	11.0	27.0	27.0286668.68442369055	
55	0	11.0	27.0	27.0286672.25096181966	
56	0	11.0	26.0	26.0265000.93303738046	
57	0	11.0	25.0	25.0283335.11209793977	
58	0	11.0	26.0	26.0284170.94577249454	
59	0	11.0	25.0	25.0304167.1960274415	
60	0	10.0	25.0	25.0328335.9229203537	
61	0	10.0	25.0	25.0307504.584295153	
62	0	9.0	25.0	25.0354168.6170041483	
63	0	10.0	25.0	25.0350834.61495543865	
64	0	11.0	25.0	25.0326668.68442369055	
65	0	10.0	25.0	25.0326667.42813117174	
66	0	11.0	25.0	25.0350834.9251501169	
67	0	11.0	25.0	25.0376668.843624983	
68	0	12.0	25.0	25.0381668.28344807366	
69	0	13.0	24.0	24.0361668.21332754276	
70	0	13.0	24.0	24.0334169.079693554	
71	0	13.0	24.0	24.0361668.7566687103	
72	0	13.0	25.0	25.0390001.2467172924	
73	0	13.0	25.0	25.0420836.3843415215	
74	0	12.0	24.0	24.0442501.7438597935	
75	0	13.0	24.0	24.0421668.2738583978	
76	0	13.0	25.0	25.0420834.9405250645	
77	0	13.0	25.0	25.0453334.3510903572	
78	0	13.0	25.0	25.0487502.01775702386	
79	0	14.0	26.0	26.0487501.7606105015	
80	0	14.0	25.0	25.0468336.9352331971	
81	0	13.0	26.0	26.0488334.8799942094	
82	0	13.0	26.0	26.0454166.66712358926	
83	0	13.0	26.0	26.0421669.0371766055	
84	0	13.0	27.0	27.0393335.1120979397	
85	0	14.0	26.0	26.0390837.471131582	
86	0	13.0	27.0	27.0424168.855996565	
87	0	13.0	27.0	27.0424170.78899125755	
88	0	12.0	26.0	26.0411668.80192931567	
89	0	13.0	26.0	26.0385004.17595962354	
90	0	12.0	26.0	26.0382501.3532098369	
91	0	11.0	25.0	25.0404169.4278265618	
92	0	12.0	25.0	25.0381669.25625368656	
93	0	12.0	25.0	25.0410834.94052506454	
94	0	11.0	25.0	25.0433335.64241245843	
95	0	11.0	25.0	25.0404167.77159637114	
96	0	11.0	26.0	26.0405001.17419417895	
97	0	10.0	27.0	27.0460835.9215256831	
98	0	10.0	27.0	27.0431667.42995761527	
99	0	9.0	27.0	27.0457501.488147987	
100	0	9.0	28.0	28.0490834.95011474035	
101	0	8.0	29.0	29.0524169.01949103276	
102	0	9.0	29.0	29.0496668.38706576166	
103	0	10.0	29.0	29.0501668.4786734893	
104	0	9.0	30.0	30.0535003.4033666842	
105	0	10.0	30.0	30.0478334.0947978382	
106	0	9.0	30.0	30.0504168.27385839785	
107	0	9.0	30.0	30.0535001.6071917311	
108	0	9.0	31.0	31.0562501.7787646065	
109	0	9.0	31.0	31.0544170.4401394057	
110	0	8.0	30.0	30.0562501.7787646065	
111	0	8.0	31.0	31.0571671.0793889443	
112	0	8.0	30.0	30.0562502.5895870203	
113	0	7.0	30.0	30.0591669.0371766055	
114	0	6.0	31.0	31.0631667.599704047	
115	0	7.0	32.0	32.0611667.9482887719	
116	0	8.0	32.0	32.0582501.6071917311	
117	0	8.0	33.0	33.0595001.6071917311	
118	0	8.0	33.0	33.0564168.2738583978	
119	0	9.0	33.0	33.0536670.0969936553	
120	0	8.0	33.0	33.0564167.2565582966	
121	0	8.0	33.0	33.0595000.3708145485	
122	0	8.0	32.0	32.0615000.7614645048	
123	0	8.0	33.0	33.0627501.6071917311	
124	0	8.0	33.0	33.0661668.2738583978	
125	0	8.0	34.0	34.0675836.763660322	
126	0	8.0	33.0	33.0661669.4228393044	
127	0	8.0	34.0	34.0675834.3510903572	
128	0	8.0	35.0	35.0691668.8194184973	
129	0	8.0	35.0	35.0727503.6018998638	
130	0	7.0	35.0	35.0720835.7543047285	
131	0	8.0	34.0	34.0675837.0719012596	
132	0	7.0	35.0	35.0720834.4090511078	
133	0	8.0	36.0	36.0709170.1955003429	
134	0	7.0	35.0	35.0686668.8019293156	
135	0	8.0	35.0	35.0625002.9083277935	
136	0	8.0	34.0	34.0609170.5979872273	
137	0	7.0	35.0	35.0623336.9202399064	
138	0	8.0	35.0	35.0625002.3528243661	
139	0	8.0	35.0	35.0594169.2512664296	
140	0	7.0	35.0	35.0654169.0722917402	
141	0	7.0	34.0	34.0670834.7370046272	
142	0	6.0	35.0	35.0717500.8115547618	
143	0	5.0	36.0	36.0735002.4687914519	
144	0	4.0	37.0	37.0788333.862694108	
145	0	4.0	37.0	37.0757501.026726819	
146	0	4.0	36.0	36.0738334.1124834104	
147	0	4.0	35.0	35.0691668.3508458551	
148	0	3.0	35.0	35.0756668.7572847416	
149	0	2.0	35.0	35.0794168.1548146537	
150	0	2.0	34.0	34.0809167.5466558668	
151	0	3.0	33.0	33.0757502.567608273	
152	0	2.0	33.0	33.0795001.0513127982	
153	0	3.0	32.0	32.0751668.855996565	
154	0	4.0	31.0	31.0745001.9109863857	
155	0	4.0	31.0	31.0698334.5468786082	
156	0	3.0	30.0	30.0725001.7792077737	
157	0	2.0	30.0	30.0762500.8936862845	
158	0	1.0	29.0	29.0763336.4354302858	
159	0	2.0	30.0	30.0731670.8044649153	
160	0	1.0	29.0	29.0734169.2711779507	
161	0	2.0	29.0	29.0724171.1420267996	
162	0	1.0	29.0	29.0734167.1960274412	
163	0	1.0	28.0	28.0728334.9405250645	
164	0	2.0	28.0	28.0689168.8194184972	
165	0	2.0	27.0	27.0685004.3907435304	
166	0	1.0	28.0	28.0718335.5226632316	
167	0	1.0	28.0	28.0728333.8626941083	
168	0	1.0	27.0	27.0724168.0411489941	
169	0	1.0	26.0	26.0750836.0944932284	
170	0	1.0	26.0	26.0inf	
171	0	49.0	29.0	29.0inf	
172	0	48.0	27.0	27.0inf	
173	0	48.0	28.0	28.0689168.8479181575	
174	0	49.0	27.0	27.0718335.9378446173	
175	0	48.0	27.0	27.0685002.3186688009	
176	0	47.0	27.0	27.0620001.5466608761	
177	0	47.0	28.0	28.0624168.2738583977	
178	0	46.0	27.0	27.0651669.2711779507	
179	0	47.0	28.0	28.0651672.2509618197	
180	0	48.0	29.0	29.0695002.9327327707	
181	0	47.0	30.0	30.0665001.8271822046	
182	0	46.0	30.0	30.0629170.8426262902	
183	0	47.0	29.0	29.0657502.4209713952	
184	0	47.0	30.0	30.0694167.8649663609	
185	0	47.0	30.0	30.0665002.9929352913	
186	0	48.0	30.0	30.0731669.0876380618	
187	0	48.0	31.0	31.0711667.9482887719	
188	0	48.0	31.0	31.0722503.4303269886	
189	0	48.0	31.0	31.0711668.0547813164	
190	0	49.0	30.0	30.0741668.855996565	
191	0	49.0	30.0	30.0741671.0969936552	
192	0	49.0	29.0	29.0734167.6844236904	
193	0	49.0	28.0	28.0inf	
194	0	0.0	28.0	28.0inf	
195	0	1.0	28.0	28.0inf	
196	0	49.0	28.0	28.0inf	
197	0	49.0	28.0	28.0788336.9179330961	
198	0	48.0	28.0	28.0781668.2834480737	
199	0	48.0	27.0	27.0811669.0876380618	
200	0	47.0	28.0	28.0778334.505058514	
201	1	21.0	35.0	35.0216672.09699365523	
202	1	21.0	35.0	35.0216672.09699365523	
203	1	21.0	36.0	36.0255004.60189986383	
204	1	21.0	34.0	34.0221670.04312806824	
205	1	21.0	35.0	35.0inf	
206	1	21.0	35.0	35.0inf	
207	1	20.0	34.0	34.0208335.9906153211	
208	1	20.0	34.0	34.0189169.80975678266	
209	1	19.0	35.0	35.0205004.61318763334	
210	1	19.0	34.0	34.0180835.62628981148	
211	1	19.0	34.0	34.0191668.61700414834	
212	1	18.0	34.0	34.0209168.8559965658	
213	1	19.0	34.0	34.0228338.63712059107	
214	1	18.0	35.0	35.0244169.44543127305	
215	1	18.0	35.0	35.0225002.7787646064	
216	1	18.0	36.0	36.0242502.7787646064	
217	1	18.0	36.0	36.0225002.7787646064	
218	1	18.0	35.0	35.0207504.60189986383	
219	1	18.0	36.0	36.0209169.2738583978	
220	1	18.0	35.0	35.0inf	
221	1	17.0	35.0	35.0190004.96622537344	
222	1	18.0	35.0	35.0177503.60719173113	
223	1	18.0	35.0	35.0165004.60189986383	
224	1	19.0	35.0	35.0177501.36090277435	
225	1	19.0	35.0	35.0154168.77671589667	
226	1	21.0	34.0	34.0inf	
227	1	20.0	35.0	35.0157502.7787646064	
228	1	21.0	35.0	35.0150002.7787646064	
229	1	21.0	36.0	36.0167502.7787646064	
230	1	22.0	36.0	36.0161669.44543127305	
231	1	22.0	37.0	37.0180836.11209793974	
232	1	23.0	37.0	37.0176669.44543127305	
233	1	23.0	37.0	37.0164171.2685665305	
234	1	23.0	38.0	38.0197502.60719173116	
235	1	23.0	40.0	40.0inf	
236	1	22.0	38.0	38.0189169.91606518664	
237	1	22.0	39.0	39.0224169.44543127308	
238	1	22.0	38.0	38.0201669.27385839782	
239	1	21.0	38.0	38.0207502.77876460642	
240	1	21.0	39.0	39.0230002.77876460642	
241	1	20.0	39.0	39.0237504.60189986386	
242	1	21.0	38.0	38.0207502.60719173116	
243	1	20.0	38.0	38.0215002.0177570239	
244	1	21.0	38.0	38.0215005.84662478964	
245	1	19.0	39.0	39.0257502.17016746188	
246	1	18.0	39.0	39.0257504.60189986386	
247	1	17.0	38.0	38.0235002.91098638574	
248	1	18.0	38.0	38.0222504.60189986386	
249	1	17.0	37.0	37.0203335.87999420945	
250	1	17.0	38.0	38.0224169.05478131643	
251	1	18.0	39.0	39.0inf	
252	1	18.0	39.0	39.0249170.44013940575	
253	1	18.0	39.0	39.0225004.4303269886	
254	1	17.0	40.0	40.0261668.7767158967	
255	1	16.0	40.0	40.0inf	
256	1	16.0	40.0	40.0275836.9352331971	
257	1	15.0	40.0	40.0291668.6844236905	
258	1	13.0	39.0	39.0inf	
259	1	15.0	39.0	39.0267502.27363565646	
260	1	15.0	38.0	38.0inf	
261	1	16.0	36.0	36.0inf	
262	1	14.0	38.0	38.0249175.61850328505	
263	1	16.0	37.0	37.0194168.93761601963	
264	1	17.0	36.0	36.0inf	
265	1	16.0	36.0	36.0174168.28344807363	
266	1	15.0	35.0	35.0174171.09699365523	
267	1	14.0	36.0	36.0209169.44543127305	
268	1	14.0	36.0	36.0210837.68086583208	
269	1	16.0	37.0	37.0inf	
270	1	16.0	37.0	37.0inf	
271	1	15.0	37.0	37.0inf	
272	1	15.0	37.0	37.0204169.56370669062	
273	1	14.0	36.0	36.0202503.143090116	
274	1	15.0	35.0	35.0inf	
275	1	14.0	35.0	35.0187502.28162210528	
276	1	13.0	35.0	35.0inf	
277	1	14.0	34.0	34.0171669.2738583978	
278	1	14.0	34.0	34.0inf	
279	1	14.0	34.0	34.0inf	
280	1	14.0	35.0	35.0185004.07782564472	
281	1	13.0	35.0	35.0203336.07412024448	
282	1	13.0	35.0	35.0inf	
283	1	12.0	36.0	36.0242503.6137240296	
284	1	13.0	36.0	36.0220835.52266323168	
285	1	13.0	36.0	36.0220837.93523319715	
286	1	13.0	35.0	35.0203337.76366032189	
287	1	13.0	36.0	36.0221671.09699365523	
288	1	12.0	35.0	35.0224171.09699365526	
289	1	12.0	37.0	37.0261669.05478131643	
290	1	12.0	37.0	37.0inf	
291	1	11.0	37.0	37.0283337.9352331972	
292	1	12.0	37.0	37.0261668.7767158967	
293	1	11.0	36.0	36.0inf	
294	1	13.0	37.0	37.0243336.11209793974	
295	1	13.0	37.0	37.0240835.7214479831	
296	1	14.0	38.0	38.0inf	
297	1	12.0	38.0	38.0282502.7787646064	
298	1	12.0	38.0	38.0281669.5637066906	
299	1	11.0	39.0	39.0326671.6328920401	
300	1	11.0	37.0	37.0284171.6328920401	
301	1	10.0	39.0	39.0326667.7089302856	
302	1	10.0	40.0	40.0inf	
303	1	10.0	40.0	40.0375002.7787646064	
304	1	10.0	41.0	41.0400836.11209793977	
305	1	9.0	41.0	41.0426669.6155919389	
306	1	10.0	42.0	42.0428335.7084213342	
307	1	10.0	42.0	42.0429171.6328920401	
308	1	11.0	42.0	42.0404169.27385839785	
309	1	11.0	42.0	42.0405002.01775702386	
310	1	11.0	42.0	42.0inf	
311	1	11.0	41.0	41.0380002.1893298991	
312	1	11.0	41.0	41.0380004.4303269886	
313	1	10.0	41.0	41.0401669.91606518667	
314	1	11.0	41.0	41.0431669.88976114325	
315	1	9.0	42.0	42.0457503.14309011603	
316	1	9.0	42.0	42.0486670.0620888424	
317	1	8.0	43.0	43.0518336.4764234494	
318	1	8.0	44.0	44.0inf	
319	1	9.0	44.0	44.0527503.143090116	
320	1	10.0	44.0	44.0501669.0547813164	
321	1	11.0	45.0	45.0inf	
322	1	11.0	45.0	45.0504171.63289204007	
323	1	10.0	45.0	45.0544168.4253170263	
324	1	8.0	48.0	48.0inf	
325	1	12.0	46.0	46.0521669.12936286844	
326	1	11.0	47.0	47.0551669.898460476	
327	1	10.0	46.0	46.0inf	
328	1	10.0	47.0	47.0611671.2685665304	
329	1	10.0	47.0	47.0631671.2685665304	
330	1	9.0	48.0	48.0675002.7286430435	
331	1	7.0	46.0	46.0inf	
332	1	8.0	47.0	47.0674171.6328920401	
333	1	8.0	47.0	47.0685002.6071917311	
334	1	8.0	48.0	48.0722506.892817372	
335	1	9.0	46.0	46.0634173.116209328	
336	1	9.0	47.0	47.0711672.6416558449	
337	1	7.0	0.0	0.0inf	
338	1	7.0	48.0	48.0750835.0242001617	
339	1	7.0	48.0	48.0inf	
340	1	9.0	47.0	47.0inf	
341	1	9.0	47.0	47.0657501.2991893335	
342	1	10.0	47.0	47.0644169.1118751983	
343	1	10.0	46.0	46.0571669.8233036576	
344	1	11.0	47.0	47.0607502.5466608761	
345	1	10.0	47.0	47.0631671.6328920401	
346	1	10.0	47.0	47.0634170.6328920401	
347	1	9.0	48.0	48.0684169.8097567826	
348	1	10.0	48.0	48.0669169.0241499565	
349	1	11.0	47.0	47.0inf	
350	1	11.0	47.0	47.0596669.8097567826	
351	1	12.0	47.0	47.0574169.7352795658	
352	1	12.0	46.0	46.0529169.4762007081	
353	1	11.0	45.0	45.0inf	
354	1	12.0	46.0	46.0487500.7505854248	
355	1	14.0	46.0	46.0inf	
356	1	11.0	44.0	44.0487501.6086402194	
357	1	13.0	44.0	44.0455001.0743643776	
358	1	13.0	46.0	46.0500835.6242195417	
359	1	13.0	49.0	49.0inf	
360	1	13.0	47.0	47.0inf	
361	1	14.0	48.0	48.0571669.8097567826	
362	1	13.0	48.0	48.0590837.7636603218	
363	1	14.0	47.0	47.0562501.2929564782	
364	1	14.0	47.0	47.0inf	
365	1	14.0	47.0	47.0517504.60189986374	
366	1	15.0	47.0	47.0494169.61019930855	
367	1	16.0	46.0	46.0inf	
368	1	16.0	47.0	47.0484168.8559965657	
369	1	16.0	47.0	47.0484171.0969936552	
370	1	17.0	47.0	47.0470004.4303269885	
371	1	17.0	48.0	48.0521667.3426705395	
372	1	16.0	48.0	48.0560836.8049511304	
373	1	15.0	1.0	1.0inf	
374	1	15.0	1.0	1.0inf	
375	1	15.0	1.0	1.0576669.4454312732	
376	1	15.0	0.0	0.0617504.6018998638	
377	1	14.0	0.0	0.0594167.8364667005	
378	1	14.0	0.0	0.0642502.4452085317	
379	1	15.0	0.0	0.0inf	
380	1	16.0	0.0	0.0inf	
381	1	15.0	49.0	49.0inf	
382	1	14.0	49.0	49.0inf	
383	1	13.0	49.0	49.0inf	
384	1	13.0	49.0	49.0581669.3093393255	
385	1	12.0	48.0	48.0611669.8097567826	
386	1	13.0	49.0	49.0601671.8969919059	
387	1	11.0	49.0	49.0684169.1389474969	
388	1	13.0	49.0	49.0640835.5498751078	
389	1	13.0	48.0	48.0inf	
390	1	14.0	49.0	49.0634173.4954858988	
391	1	14.0	1.0	1.0inf	
392	1	15.0	1.0	1.0inf	
393	1	16.0	1.0	1.0inf	
394	1	16.0	1.0	1.0588337.763660322	
395	1	16.0	1.0	1.0577504.4303269886	
396	1	17.0	0.0	0.0615004.6018998638	
397	1	16.0	2.0	2.0549169.3009357436	
398	1	16.0	1.0	1.0600835.9792809483	
399	1	16.0	0.0	0.0inf	
400	1	16.0	1.0	1.0615001.173551624	
401	2	11.0	1.0	1.0643336.3507857398	
402	2	11.0	1.0	1.0643337.763660322	
403	2	11.0	0.0	0.0667503.4303269886	
404	2	11.0	1.0	1.0643334.9405250645	
405	2	11.0	1.0	1.0644167.6495188777	
406	2	11.0	1.0	1.0646668.0231687891	
407	2	10.0	2.0	2.0631668.4105264602	
408	2	11.0	2.0	2.0607501.0513127978	
409	2	11.0	3.0	3.0567502.4559705704	
410	2	11.0	2.0	2.0605001.5722869183	
411	2	11.0	2.0	2.0604168.700374753	
412	2	10.0	3.0	3.0590835.657658039	
413	2	10.0	2.0	2.0628333.704147882	
414	2	10.0	1.0	1.0668334.9305562492	
415	2	9.0	2.0	2.0655001.6841791885	
416	2	9.0	1.0	1.0696668.8905335069	
417	2	8.0	1.0	1.0724168.2738583978	
418	2	8.0	0.0	0.0765002.0686128992	
419	2	9.0	0.0	0.0741668.9603120179	
420	2	11.0	1.0	1.0inf	
421	2	12.0	49.0	49.0inf	
422	2	11.0	48.0	48.0inf	
423	2	11.0	48.0	48.0617501.6071917311	
424	2	11.0	47.0	47.0580001.6071917311	
425	2	12.0	47.0	47.0557501.0177570238	
426	2	13.0	47.0	47.0536668.6844236904	
427	2	13.0	47.0	47.0536671.0620888423	
428	2	13.0	47.0	47.0530835.6177310285	
429	2	12.0	47.0	47.0551668.2389535849	
430	2	12.0	48.0	48.0589168.756101421	
431	2	13.0	48.0	48.0564167.543936588	
432	2	13.0	48.0	48.0inf	
433	2	15.0	0.0	0.0inf	
434	2	13.0	0.0	0.0inf	
435	2	13.0	2.0	2.0561670.0969936552	
436	2	13.0	1.0	1.0603333.8626941079	
437	2	14.0	1.0	1.0584168.951064362	
438	2	14.0	1.0	1.0581669.0627020644	
439	2	15.0	1.0	1.0564169.5524789325	
440	2	15.0	0.0	0.0607502.4207544611	
441	2	14.0	0.0	0.0inf	
442	2	14.0	47.0	47.0inf	
443	2	13.0	48.0	48.0inf	
444	2	14.0	0.0	0.0inf	
445	2	15.0	49.0	49.0inf	
446	2	14.0	1.0	1.0inf	
447	2	14.0	49.0	49.0inf	
448	2	12.0	1.0	1.0inf	
449	2	11.0	49.0	49.0inf	
450	2	12.0	48.0	48.0620835.5226632317	
451	2	12.0	48.0	48.0582501.616781407	
452	2	13.0	47.0	47.0524168.6016291999	
453	2	14.0	46.0	46.0469169.1625642476	
454	2	13.0	45.0	45.0454170.07003335084	
455	2	13.0	46.0	46.0487501.9835094992	
456	2	13.0	47.0	47.0523335.72936873103	
457	2	13.0	47.0	47.0524167.7179794648	
458	2	14.0	46.0	46.0469168.8575078333	
459	2	14.0	45.0	45.0434170.0700333511	
460	2	14.0	44.0	44.0417500.9330373806	
461	2	14.0	45.0	45.0437501.5831482235	
462	2	13.0	45.0	45.0454168.5071731497	
463	2	13.0	46.0	46.0490833.93281463895	
464	2	12.0	46.0	46.0515835.81398533366	
465	2	13.0	46.0	46.0495002.3960353977	
466	2	12.0	46.0	46.0500835.40194623254	
467	2	12.0	45.0	45.0487501.6167814069	
468	2	11.0	45.0	45.0504167.7413679164	
469	2	11.0	45.0	45.0504170.61559193884	
470	2	10.0	46.0	46.0568335.8021247853	
471	2	9.0	46.0	46.0601669.7176748553	
472	2	9.0	47.0	47.0637500.5643661703	
473	2	10.0	48.0	48.0649167.5466558668	
474	2	11.0	48.0	48.0617502.5290561648	
475	2	11.0	49.0	49.0656668.238953585	
476	2	11.0	49.0	49.0650835.9229203536	
477	2	11.0	48.0	48.0611671.2509618194	
478	2	12.0	49.0	49.0628335.1120979398	
479	2	12.0	48.0	48.0650834.9056202517	
480	2	11.0	48.0	48.0611667.6844236904	
481	2	11.0	47.0	47.0574169.2562536865	
482	2	11.0	47.0	47.0570001.6071917311	
483	2	12.0	47.0	47.0547501.6071917311	
484	2	12.0	47.0	47.0551668.6844236904	
485	2	12.0	47.0	47.0551671.2336617176	
486	2	13.0	48.0	48.0568335.1120979397	
487	2	13.0	47.0	47.0530834.9405250644	
488	2	13.0	47.0	47.0536667.6844236904	
489	2	13.0	47.0	47.0544168.2738583977	
490	2	13.0	48.0	48.0581668.6668189792	
491	2	13.0	49.0	49.0620833.9232249631	
492	2	13.0	49.0	49.0inf	
493	2	12.0	0.0	0.0inf	
494	2	13.0	1.0	1.0607500.7614645052	
495	2	13.0	2.0	2.0613335.377579878	
496	2	12.0	2.0	2.0595004.1028934359	
497	2	13.0	1.0	1.0620834.4205712397	
498	2	14.0	2.0	2.0581669.2203220753	
499	2	14.0	2.0	2.0555001.1145193803	
500	2	14.0	3.0	3.0511669.3045174993	
501	2	13.0	4.0	4.0490836.2372204894	
502	2	14.0	4.0	4.0475834.73700462753	
503	2	14.0	3.0	3.0507501.0078168344	
504	2	13.0	2.0	2.0564169.6616978216	
505	2	14.0	2.0	2.0542502.2826219269	
506	2	13.0	2.0	2.0560835.1738398162	
507	2	13.0	3.0	3.0524168.2834480736	
508	2	14.0	4.0	4.0469168.445431273	
509	2	13.0	4.0	4.0488335.93991184246	
510	2	14.0	5.0	5.0469169.41089388815	
511	2	15.0	4.0	4.0454170.12849298253	
512	2	15.0	3.0	3.0471667.70863906626	
513	2	15.0	4.0	4.0451667.3212554292	
514	2	15.0	4.0	4.0454167.7337522698	
515	2	14.0	5.0	5.0441668.8019293156	
516	2	15.0	5.0	5.0430000.7614645051	
517	2	14.0	5.0	5.0447500.6513224429	
518	2	13.0	6.0	6.0434167.6216827936	
519	2	13.0	5.0	5.0466668.36809030775	
520	2	12.0	5.0	5.0481669.38701393385	
521	2	13.0	4.0	4.0495001.84050648304	
522	2	13.0	5.0	5.0456669.78952545574	
523	2	12.0	4.0	4.0511668.41564598575	
524	2	11.0	4.0	4.0534170.6328920402	
525	2	12.0	5.0	5.0475001.91098638566	
526	2	12.0	5.0	5.0477503.4303269885	
527	2	12.0	5.0	5.0475001.91098638566	
528	2	11.0	4.0	4.0530835.886988742	
529	2	12.0	5.0	5.0530835.8139853337	
530	2	12.0	4.0	4.0508334.818447571	
531	2	13.0	4.0	4.0487500.8936862845	
532	2	14.0	5.0	5.0435003.30639867793	
533	2	13.0	5.0	5.0453334.2995292972	
534	2	13.0	6.0	6.0420835.9179330961	
535	2	14.0	5.0	5.0434168.61573251884	
536	2	15.0	5.0	5.0417502.99503115483	
537	2	15.0	4.0	4.0450834.7370046274	
538	2	14.0	4.0	4.0469168.61700414825	
539	2	15.0	4.0	4.0454168.445431273	
540	2	14.0	4.0	4.0471667.6844236905	
541	2	13.0	4.0	4.0490836.9352331971	
542	2	14.0	5.0	5.0437503.1930078268	
543	2	13.0	4.0	4.0490835.7543047285	
544	2	13.0	5.0	5.0460835.28367081494	
545	2	13.0	4.0	4.0500836.37001386564	
546	2	13.0	5.0	5.0460834.27102963685	
547	2	14.0	5.0	5.0441670.60085097566	
548	2	13.0	5.0	5.0456668.4786734893	
549	2	14.0	6.0	6.0405003.4033666843	
550	2	13.0	6.0	6.0428333.5976553374	
551	2	13.0	6.0	6.0434169.2512664293	
552	2	14.0	7.0	7.0409168.6182033587	
553	2	14.0	6.0	6.0397501.74263881997	
554	2	15.0	5.0	5.0391667.60436297016	
555	2	16.0	5.0	5.0408335.28367081494	
556	2	15.0	4.0	4.0458335.7543047285	
557	2	16.0	4.0	4.0438333.67693600536	
558	2	17.0	4.0	4.0421670.8044649153	
559	2	16.0	3.0	3.0474168.3239486544	
560	2	16.0	2.0	2.0511667.10395877826	
561	2	16.0	1.0	1.0550837.2346090692	
562	2	15.0	2.0	2.0527501.5770706127	
563	2	15.0	1.0	1.0570835.7193999158	
564	2	16.0	2.0	2.0515834.8799942094	
565	2	16.0	2.0	2.0521668.73527956585	
566	2	17.0	1.0	1.0546668.8559965651	
567	2	17.0	1.0	1.0546670.3602014486	
568	2	17.0	1.0	1.0554169.2562536866	
569	2	16.0	1.0	1.0568336.0189780159	
570	2	16.0	0.0	0.0inf	
571	2	18.0	1.0	1.0inf	
572	2	16.0	49.0	49.0inf	
573	2	16.0	48.0	48.0inf	
574	2	17.0	1.0	1.0inf	
575	2	16.0	1.0	1.0560835.1120979398	
576	2	16.0	1.0	1.0555001.6949629879	
577	2	16.0	1.0	1.0550834.2285640404	
578	2	17.0	0.0	0.0inf	
579	2	15.0	49.0	49.0inf	
580	2	16.0	0.0	0.0inf	
581	2	18.0	48.0	48.0inf	
582	2	18.0	49.0	49.0inf	
583	2	17.0	48.0	48.0536670.1955003429	
584	2	18.0	49.0	49.0521667.2661479724	
585	2	19.0	48.0	48.0471668.2133275427	
586	2	19.0	48.0	48.0470835.94750633184	
587	2	20.0	47.0	47.0424169.1625642476	
588	2	21.0	48.0	48.0454168.2834480736	
589	2	21.0	49.0	49.0494167.9048933714	
590	2	21.0	48.0	48.0457502.12072063575	
591	2	20.0	48.0	48.0465004.4108958334	
592	2	21.0	48.0	48.0461668.375527285	
593	2	21.0	47.0	47.0420002.24854826997	
594	2	20.0	47.0	47.0427502.58958702016	
595	2	20.0	46.0	46.0391667.7179794646	
596	2	21.0	46.0	46.0381668.17842272983	
597	2	21.0	47.0	47.0417501.33182069234	
598	2	22.0	47.0	47.0410833.59765533736	
599	2	23.0	48.0	48.0411667.5603529511	
600	2	23.0	48.0	48.0444168.48322525114	
601	3	45.0	28.0	28.0inf	
602	3	45.0	29.0	29.0inf	
603	3	47.0	27.0	27.0inf	
604	3	46.0	30.0	30.0inf	
605	3	48.0	26.0	26.0845002.7744454776	
606	3	47.0	26.0	26.0inf	
607	3	46.0	25.0	25.0inf	
608	3	49.0	27.0	27.0inf	
609	3	0.0	27.0	27.0inf	
610	3	1.0	25.0	25.0960002.3078581515	
611	3	0.0	26.0	26.01042502.604511284	
612	3	1.0	26.0	26.0960835.5827318532	
613	3	1.0	25.0	25.01000835.1120979397	
614	3	1.0	25.0	25.0inf	
615	3	1.0	25.0	25.0inf	
616	3	2.0	25.0	25.0inf	
617	3	2.0	25.0	25.0inf	
618	3	4.0	24.0	24.0inf	
619	3	1.0	23.0	23.0847502.3696659124	
620	3	2.0	23.0	23.0847504.1377982487	
621	3	1.0	23.0	23.0924167.6671235885	
622	3	1.0	23.0	23.0924170.0969936552	
623	3	1.0	22.0	22.0928334.3337902555	
624	3	1.0	22.0	22.0928337.1068060723	
625	3	1.0	23.0	23.0inf	
626	3	1.0	22.0	22.0890834.9251501168	
627	3	1.0	21.0	21.0896669.2544272427	
628	3	1.0	22.0	22.0860837.9767646707	
629	3	1.0	21.0	21.0inf	
630	3	0.0	20.0	20.0inf	
631	3	0.0	20.0	20.0inf	
632	3	49.0	23.0	23.0inf	
633	3	0.0	22.0	22.0969167.4468086258	
634	3	1.0	21.0	21.0934167.1960274415	
635	3	1.0	21.0	21.0inf	
636	3	0.0	20.0	20.01014169.328718586	
637	3	1.0	20.0	20.0980834.5800506256	
638	3	0.0	18.0	18.0inf	
639	3	1.0	20.0	20.0inf	
640	3	3.0	19.0	19.0inf	
641	3	2.0	20.0	20.0941667.8557033526	
642	3	3.0	21.0	21.0inf	
643	3	0.0	19.0	19.0inf	
644	3	1.0	20.0	20.0inf	
645	3	1.0	19.0	19.0inf	
646	3	1.0	18.0	18.0inf	
647	3	0.0	18.0	18.01082501.1893152448	
648	3	0.0	18.0	18.0inf	
649	3	1.0	17.0	17.0974169.2062283133	
650	3	0.0	17.0	17.0inf	
651	3	0.0	16.0	16.0inf	
652	3	1.0	18.0	18.0924168.6477735832	
653	3	0.0	17.0	17.0inf	
654	3	0.0	18.0	18.01002500.6286475133	
655	3	0.0	19.0	19.0991668.0754591178	
656	3	1.0	19.0	19.0inf	
657	3	2.0	19.0	19.0inf	
658	3	1.0	19.0	19.0inf	
659	3	2.0	20.0	20.0902501.0078168344	
660	3	3.0	20.0	20.0inf	
661	3	3.0	19.0	19.0800833.9694101956	
662	3	3.0	20.0	20.0inf	
663	3	4.0	18.0	18.0874168.7492259276	
664	3	3.0	18.0	18.0inf	
665	3	2.0	18.0	18.0922501.4621309256	
666	3	3.0	17.0	17.0936668.6844236904	
667	3	3.0	17.0	17.0936671.3347794339	
668	3	2.0	18.0	18.0inf	
669	3	4.0	17.0	17.0900833.8626941078	
670	3	4.0	16.0	16.0inf	
671	3	4.0	17.0	17.0inf	
672	3	3.0	17.0	17.0inf	
673	3	5.0	17.0	17.0inf	
674	3	4.0	19.0	19.0inf	
675	3	2.0	20.0	20.0inf	
676	3	4.0	19.0	19.0838335.3959626011	
677	3	3.0	18.0	18.0885003.6053077673	
678	3	4.0	19.0	19.0838335.1453401559	
679	3	3.0	19.0	19.0inf	
680	3	2.0	20.0	20.0874168.6034736854	
681	3	2.0	19.0	19.0inf	
682	3	2.0	21.0	21.0inf	
683	3	1.0	20.0	20.0inf	
684	3	0.0	24.0	24.0inf	
685	3	1.0	21.0	21.0inf	
686	3	2.0	22.0	22.0inf	
687	3	4.0	20.0	20.0inf	
688	3	4.0	20.0	20.0inf	
689	3	3.0	21.0	21.0inf	
690	3	4.0	18.0	18.0inf	
691	3	5.0	17.0	17.0815002.2380823918	
692	3	5.0	18.0	18.0815001.1893298991	
693	3	6.0	18.0	18.0782502.6071917311	
694	3	5.0	17.0	17.0inf	
695	3	6.0	17.0	17.0745002.7349293143	
696	3	5.0	16.0	16.0inf	
697	3	6.0	18.0	18.0821670.7743855627	
698	3	7.0	18.0	18.0751667.5855247255	
699	3	8.0	18.0	18.0inf	
700	3	7.0	17.0	17.0764168.6477735832	
701	3	3.0	17.0	17.0inf	
702	3	8.0	17.0	17.0inf	
703	3	6.0	16.0	16.0848333.9904664158	
704	3	5.0	16.0	16.0880833.9018020005	
705	3	4.0	16.0	16.0inf	
706	3	5.0	16.0	16.0inf	
707	3	6.0	18.0	18.0inf	
708	3	8.0	16.0	16.0inf	
709	3	5.0	18.0	18.0895001.11004923	
710	3	6.0	18.0	18.0862503.0366805323	
711	3	5.0	19.0	19.0884168.9160651866	
712	3	6.0	17.0	17.0inf	
713	3	6.0	19.0	19.0810834.3315604918	
714	3	5.0	19.0	19.0843333.9387204734	
715	3	4.0	20.0	20.0868336.6970993481	
716	3	5.0	20.0	20.0inf	
717	3	6.0	20.0	20.0inf	
718	3	5.0	20.0	20.0inf	
719	3	5.0	21.0	21.0714167.699605323	
720	3	5.0	21.0	21.0680001.6071917311	
721	3	5.0	20.0	20.0687502.143090116	
722	3	4.0	19.0	19.0inf	
723	3	6.0	20.0	20.0647501.616781407	
724	3	6.0	21.0	21.0681668.843624983	
725	3	7.0	20.0	20.0658336.3262686245	
726	3	6.0	21.0	21.0681669.256253687	
727	3	7.0	21.0	21.0inf	
728	3	7.0	20.0	20.0694168.5071731496	
729	3	6.0	20.0	20.0689169.052733249	
730	3	4.0	19.0	19.0inf	
731	3	6.0	20.0	20.0762502.3146629912	
732	3	6.0	21.0	21.0inf	
733	3	6.0	21.0	21.0inf	
734	3	7.0	22.0	22.0763335.9137624877	
735	3	7.0	22.0	22.0inf	
736	3	8.0	22.0	22.0728334.8930208584	
737	3	9.0	22.0	22.0inf	
738	3	7.0	22.0	22.0718335.310268253	
739	3	7.0	23.0	23.0753334.5331519298	
740	3	6.0	23.0	23.0inf	
741	3	6.0	23.0	23.0inf	
742	3	6.0	24.0	24.0inf	
743	3	7.0	22.0	22.0inf	
744	3	6.0	23.0	23.0inf	
745	3	7.0	25.0	25.0750002.8066006899	
746	3	7.0	25.0	25.0750005.1201935378	
747	3	6.0	26.0	26.0781668.8097567826	
748	3	8.0	27.0	27.0inf	
749	3	6.0	26.0	26.0inf	
750	3	7.0	24.0	24.0inf	
751	3	7.0	25.0	25.0inf	
752	3	7.0	25.0	25.0710835.5639046817	
753	3	7.0	26.0	26.0711671.3347794339	
754	3	7.0	26.0	26.0inf	
755	3	8.0	26.0	26.0721667.9596231449	
756	3	8.0	27.0	27.0718335.0421939516	
757	3	7.0	27.0	27.0inf	
758	3	8.0	27.0	27.0inf	
759	3	8.0	28.0	28.0inf	
760	3	8.0	27.0	27.0inf	
761	3	9.0	27.0	27.0inf	
762	3	9.0	25.0	25.0616668.7835262015	
763	3	8.0	25.0	25.0608335.8966504558	
764	3	6.0	26.0	26.0inf	
765	3	9.0	25.0	25.0inf	
766	3	8.0	24.0	24.0inf	
767	3	11.0	27.0	27.0inf	
768	3	8.0	26.0	26.0682500.8362439591	
769	3	11.0	24.0	24.0inf	
770	3	10.0	27.0	27.0inf	
771	3	8.0	26.0	26.0inf	
772	3	7.0	26.0	26.0inf	
773	3	7.0	26.0	26.0inf	
774	3	7.0	28.0	28.0718336.5002931454	
775	3	5.0	27.0	27.0inf	
776	3	7.0	27.0	27.0671668.68442369	
777	3	7.0	27.0	27.0inf	
778	3	8.0	25.0	25.0608334.2254099722	
779	3	7.0	26.0	26.0644168.2978878685	
780	3	8.0	26.0	26.0inf	
781	3	7.0	26.0	26.0604170.0700333512	
782	3	7.0	25.0	25.0inf	
783	3	6.0	25.0	25.0inf	
784	3	7.0	25.0	25.0inf	
785	3	6.0	26.0	26.0inf	
786	3	6.0	27.0	27.0637501.11004923	
787	3	7.0	29.0	29.0641667.2679744158	
788	3	6.0	28.0	28.0inf	
789	3	6.0	28.0	28.0641670.7695601025	
790	3	7.0	28.0	28.0inf	
791	3	8.0	27.0	27.0inf	
792	3	6.0	27.0	27.0inf	
793	3	8.0	26.0	26.0542501.5872111825	
794	3	7.0	25.0	25.0570835.9405250644	
795	3	8.0	25.0	25.0inf	
796	3	9.0	27.0	27.0inf	
797	3	7.0	25.0	25.0570835.7802181038	
798	3	6.0	23.0	23.0635003.773472739	
799	3	6.0	23.0	23.0635003.773472739	
800	3	6.0	23.0	23.0635003.773472739	
801	4	6.0	27.0	27.0349167.9923600107	
802	4	6.0	27.0	27.0349167.9923600107	
803	4	6.0	27.0	27.0349167.9923600107	
804	4	7.0	29.0	29.0336669.9160651866	
805	4	7.0	30.0	30.0358335.77854186506	
806	4	8.0	32.0	32.0inf	
807	4	6.0	29.0	29.0397504.9662253734	
808	4	5.0	30.0	30.0437503.07782564464	
809	4	5.0	29.0	29.0414171.26856653043	
810	4	4.0	31.0	31.0465004.96622537344	
811	4	5.0	30.0	30.0430001.56635087245	
812	4	4.0	30.0	30.0455836.23037335725	
813	4	5.0	29.0	29.0inf	
814	4	5.0	28.0	28.0inf	
815	4	6.0	28.0	28.0349169.419106826	
816	4	5.0	28.0	28.0inf	
817	4	6.0	28.0	28.0338337.7636603219	
818	4	5.0	28.0	28.0361668.9403023231	
819	4	4.0	29.0	29.0inf	
820	4	5.0	29.0	29.0376669.9160651866	
821	4	5.0	30.0	30.0375003.2493985199	
822	4	4.0	30.0	30.0418335.5226632317	
823	4	4.0	31.0	31.0418336.5627665	
824	4	3.0	30.0	30.0454169.56370669056	
825	4	5.0	30.0	30.0421669.6748458817	
826	4	4.0	29.0	29.0inf	
827	4	4.0	29.0	29.0441670.3093393255	
828	4	5.0	30.0	30.0395002.6459476148	
829	4	5.0	30.0	30.0inf	
830	4	4.0	31.0	31.0438335.8799942094	
831	4	5.0	31.0	31.0404169.445431273	
832	4	5.0	32.0	32.0415004.60189986374	
833	4	6.0	31.0	31.0371668.9403023231	
834	4	5.0	31.0	31.0375003.0613619621	
835	4	7.0	30.0	30.0344169.57765305234	
836	4	8.0	29.0	29.0inf	
837	4	8.0	30.0	30.0329169.4454312731	
838	4	8.0	30.0	30.0345002.1893298991	
839	4	8.0	30.0	30.0345004.4303269886	
840	4	9.0	31.0	31.0310837.3592812396	
841	4	8.0	30.0	30.0367502.62073860597	
842	4	6.0	31.0	31.0inf	
843	4	6.0	31.0	31.0inf	
844	4	8.0	30.0	30.0362504.96622537344	
845	4	7.0	29.0	29.0384168.7767158967	
846	4	6.0	29.0	29.0inf	
847	4	6.0	30.0	30.0422504.60189986374	
848	4	6.0	29.0	29.0415005.4303269885	
849	4	6.0	30.0	30.0441669.4386264333	
850	4	7.0	30.0	30.0inf	
851	4	7.0	30.0	30.0410835.07719312684	
852	4	7.0	29.0	29.0403335.9405250645	
853	4	6.0	29.0	29.0434171.26856653043	
854	4	7.0	30.0	30.0431671.26856653043	
855	4	5.0	28.0	28.0487502.59673443064	
856	4	8.0	29.0	29.0410834.564324777	
857	4	7.0	31.0	31.0inf	