ITEM: TIMESTEP
0
ITEM: NUMBER OF ATOMS4000
ITEM: BOX BOUNDS pp pp pp
0 50
0 50
0 50
ITEM: ATOMS id mol type x y z 
1 1 1 33.11048116197266 37.037279534445354 13.145651563307503
2 1 1 34.00888116197266 37.372079534445355 12.145251563307504
3 1 1 33.75344116197266 38.587519534445356 11.530771563307503
4 1 1 33.57368116197266 37.29975953444536 11.051731563307504
5 1 1 32.81464116197266 38.41535953444536 10.736851563307503
6 1 1 31.48496116197266 38.22087953444536 11.074611563307503
7 1 1 31.65576116197266 39.162399534445356 10.072531563307503
8 1 1 31.27392116197266 37.928159534445356 10.573251563307503
9 1 1 30.869121161972657 38.64895953444535 11.685251563307503
10 1 1 32.203841161972655 38.38607953444535 11.421491563307503
11 1 1 31.110161161972655 39.10375953444535 11.878291563307503
12 1 1 30.518321161972654 39.858399534445354 10.878131563307502
13 1 1 31.115201161972653 39.46999953444536 12.066771563307501
14 1 1 29.775201161972653 39.455599534445355 12.4191715633075
15 1 1 28.931601161972655 39.31359953444535 11.3291715633075
16 1 1 29.792881161972655 39.18791953444535 12.4072515633075
17 1 1 28.615841161972654 38.65055953444535 11.9115715633075
18 1 1 27.422161161972653 39.30575953444535 11.6554915633075
19 1 1 27.513521161972655 40.00231953444535 10.4610915633075
20 1 1 27.821521161972655 39.48799953444535 11.7103715633075
21 1 1 28.268801161972654 39.46439953444535 13.021731563307501
22 1 1 27.450241161972652 40.22639953444535 13.839891563307502
23 1 1 27.345761161972653 39.03007953444535 14.531171563307502
24 1 1 26.512721161972653 39.49879953444535 13.528051563307503
25 1 1 25.58624116197265 38.514239534445345 13.832051563307504
26 1 1 26.27056116197265 37.63655953444535 14.657331563307503
27 1 1 27.37400116197265 38.40551953444535 14.323971563307502
28 1 1 28.14632116197265 38.22343953444535 13.188051563307502
29 1 1 29.439921161972652 37.767439534445344 13.384611563307502
30 1 1 29.443121161972652 36.38183953444535 13.386371563307502
31 1 1 28.852561161972652 36.74511953444535 12.186611563307503
32 1 1 28.80296116197265 37.31255953444535 10.923411563307504
33 1 1 29.19048116197265 36.19463953444535 10.202291563307504
34 1 1 28.64656116197265 35.15647953444535 9.463171563307505
35 1 1 28.507601161972648 35.636319534445356 10.755651563307506
36 1 1 28.03920116197265 34.572719534445355 11.510131563307507
37 1 1 28.60672116197265 34.77855953444536 12.757331563307506
38 1 1 28.17592116197265 33.461999534445354 12.725331563307506
39 1 1 28.57624116197265 34.738639534445355 13.085891563307506
40 1 1 27.88416116197265 34.544159534445356 11.901411563307505
41 1 1 27.340001161972648 35.763439534445354 12.272051563307505
42 1 1 27.086001161972646 34.647759534445356 13.053571563307505
43 1 1 26.820881161972647 35.77327953444536 13.817171563307506
44 1 1 26.861681161972648 36.23087953444536 15.124371563307506
45 1 1 27.504641161972646 35.755519534445355 16.256051563307505
46 1 1 28.316801161972645 34.641759534445356 16.115171563307506
47 1 1 27.521681161972644 33.50743953444535 16.083891563307507
48 1 1 27.032961161972644 33.01295953444535 17.282451563307507
49 1 1 28.196241161972644 32.35487953444535 17.64821156330751
50 1 1 29.155601161972644 32.16127953444535 16.66733156330751
51 1 1 29.919521161972643 31.69335953444535 17.724531563307508
52 1 1 30.33520116197264 30.378079534445348 17.85637156330751
53 1 1 29.05352116197264 29.89079953444535 17.656691563307508
54 1 1 29.71464116197264 31.03055953444535 17.22797156330751
55 1 1 30.72376116197264 31.04367953444535 16.27853156330751
56 1 1 29.89880116197264 30.93207953444535 17.38629156330751
57 1 1 28.853121161972638 31.72215953444535 17.83605156330751
58 1 1 29.296001161972637 32.83519953444535 17.13949156330751
59 1 1 28.528081161972636 31.70383953444535 16.915331563307507
60 1 1 29.402321161972637 30.64319953444535 17.090851563307506
61 1 1 30.190241161972637 29.67671953444535 16.486851563307507
62 1 1 29.634561161972638 30.519119534445352 15.537411563307508
63 1 1 30.980081161972638 30.203519534445352 15.436691563307507
64 1 1 30.59200116197264 31.18271953444535 14.536371563307506
65 1 1 30.11280116197264 31.12231953444535 15.835171563307506
66 1 1 29.67496116197264 32.41151953444535 15.577891563307507
67 1 1 29.72336116197264 33.003919534445345 16.829491563307506
68 1 1 28.93792116197264 34.13799953444534 16.699011563307508
69 1 1 29.77464116197264 33.50191953444534 17.601891563307507
70 1 1 30.540721161972638 34.38159953444534 16.853971563307507
71 1 1 30.568961161972638 33.57639953444534 17.981251563307506
72 1 1 30.548401161972638 32.85511953444534 19.164131563307507
73 1 1 31.423521161972637 33.54383953444534 19.988611563307508
74 1 1 32.09856116197264 32.85455953444534 18.994051563307508
75 1 1 33.09368116197264 32.601119534445345 19.924451563307507
76 1 1 32.43304116197264 31.578479534445346 19.262931563307507
77 1 1 32.27736116197264 32.30727953444535 20.431011563307507
78 1 1 31.382721161972643 31.64063953444535 19.609171563307505
79 1 1 32.34536116197264 30.77455953444535 19.115891563307507
80 1 1 32.01680116197264 32.00175953444535 19.668931563307506
81 1 1 32.06784116197264 32.87839953444535 20.740851563307505
82 1 1 32.914161161972636 32.35175953444535 19.778371563307505
83 1 1 34.23992116197264 32.708079534445346 19.966211563307507
84 1 1 33.81280116197264 32.32791953444535 21.22837156330751
85 1 1 32.739841161972635 31.97879953444535 20.42421156330751
86 1 1 33.38016116197264 32.87767953444535 21.26205156330751
87 1 1 34.164161161972636 32.70951953444535 22.392131563307508
88 1 1 33.25192116197264 31.72919953444535 22.036371563307508
89 1 1 33.50760116197264 32.37487953444535 23.23549156330751
90 1 1 32.44736116197264 33.26687953444535 23.234691563307507
91 1 1 31.912641161972637 32.43287953444535 24.203571563307506
92 1 1 30.743041161972638 32.99903953444535 24.684371563307504
93 1 1 31.913361161972638 33.21927953444535 25.392771563307505
94 1 1 30.77952116197264 32.67327953444535 25.972611563307506
95 1 1 30.26024116197264 31.77759953444535 26.893571563307507
96 1 1 30.25064116197264 33.12391953444535 27.221251563307508
97 1 1 30.78528116197264 32.96895953444535 25.95237156330751
98 1 1 31.82648116197264 33.335359534445345 25.11469156330751
99 1 1 30.76936116197264 34.02967953444534 24.54869156330751
100 1 1 29.55040116197264 34.60855953444534 24.863411563307512
101 1 1 30.64632116197264 35.43399953444534 24.669491563307513
102 1 1 31.95480116197264 35.62015953444534 25.085651563307515
103 1 1 33.03576116197264 35.40735953444534 24.245251563307516
104 1 1 33.479921161972634 36.33487953444534 23.316691563307515
105 1 1 32.17896116197264 35.86263953444534 23.249971563307515
106 1 1 32.27384116197264 35.27543953444534 21.998451563307515
107 1 1 31.96344116197264 34.04223953444534 22.548691563307514
108 1 1 31.23800116197264 34.065279534445345 23.728931563307516
109 1 1 30.68880116197264 33.090239534445345 24.545971563307514
110 1 1 30.111361161972642 34.283199534445345 24.141571563307515
111 1 1 30.454801161972643 34.712799534445345 22.869811563307515
112 1 1 31.577281161972643 35.183919534445344 22.207891563307516
113 1 1 30.498401161972645 36.033359534445346 22.022211563307515
114 1 1 29.230801161972643 35.48783953444534 22.147571563307515
115 1 1 30.497761161972644 35.28871953444534 21.623011563307514
116 1 1 31.374321161972645 35.60671953444534 20.598051563307514
117 1 1 30.060321161972645 35.894719534445336 20.930451563307514
118 1 1 28.748321161972644 36.15255953444534 20.566931563307513
119 1 1 29.378241161972642 37.05247953444534 21.41157156330751
120 1 1 28.319601161972642 36.95287953444534 22.299971563307512
121 1 1 28.031361161972644 38.12799953444534 21.624931563307513
122 1 1 27.612561161972643 38.619439534445334 22.850931563307512
123 1 1 27.145921161972645 38.78055953444533 21.55621156330751
124 1 1 27.290241161972645 40.10887953444533 21.18901156330751
125 1 1 27.084481161972644 39.052479534445325 20.31629156330751
126 1 1 27.789521161972644 39.52575953444533 19.22133156330751
127 1 1 27.688081161972644 38.895759534445325 17.991251563307507
128 1 1 28.144001161972643 39.79319953444533 18.943571563307508
129 1 1 29.422801161972643 39.33471953444533 19.21661156330751
130 1 1 29.298001161972643 40.63967953444533 19.66549156330751
131 1 1 29.861041161972643 39.96375953444533 18.59501156330751
132 1 1 28.813681161972642 40.78319953444533 18.984291563307508
133 1 1 29.199361161972643 40.23823953444533 20.198451563307508
134 1 1 28.24144116197264 39.61231953444533 19.417011563307508
135 1 1 27.431441161972643 39.306639534445324 18.335171563307508
136 1 1 28.291761161972644 38.73615953444532 19.25949156330751
137 1 1 27.143841161972645 38.01687953444532 18.96821156330751
138 1 1 28.402161161972646 37.803199534445326 18.42885156330751
139 1 1 29.624561161972647 37.150799534445326 18.42517156330751
140 1 1 30.090481161972647 38.107119534445324 17.53725156330751
141 1 1 29.447281161972647 38.89175953444533 18.48093156330751
142 1 1 28.885601161972648 39.01975953444533 19.74109156330751
143 1 1 29.578641161972648 40.09423953444533 20.27509156330751
144 1 1 29.33856116197265 39.49311953444533 19.049891563307508
145 1 1 29.23664116197265 39.665439534445326 20.42093156330751
146 1 1 29.46400116197265 39.15295953444533 19.15373156330751
147 1 1 30.69280116197265 39.38743953444533 19.749491563307508
148 1 1 29.56936116197265 38.95567953444533 20.43613156330751
149 1 1 30.521761161972652 38.01727953444533 20.799891563307508
150 1 1 31.57216116197265 37.12271953444533 20.928371563307508
151 1 1 31.925761161972652 35.96919953444533 21.609891563307507
152 1 1 30.90280116197265 36.47343953444533 20.822931563307506
153 1 1 30.88144116197265 36.63623953444533 19.447011563307505
154 1 1 32.01232116197265 35.85175953444533 19.286691563307507
155 1 1 33.184721161972654 35.78423953444533 20.02229156330751
156 1 1 33.89120116197265 35.32135953444533 18.92373156330751
157 1 1 33.207361161972656 35.72351953444533 20.059651563307508
158 1 1 32.54048116197266 34.94415953444533 20.991171563307507
159 1 1 31.338241161972658 35.19983953444533 20.351571563307505
160 1 1 30.397921161972658 34.32567953444533 19.830371563307505
161 1 1 29.500721161972656 34.49623953444533 18.788291563307506
162 1 1 30.040161161972655 35.58359953444533 19.456531563307507
163 1 1 28.769121161972656 36.127759534445325 19.366051563307508
164 1 1 28.169681161972655 37.307199534445324 19.77789156330751
165 1 1 27.071921161972654 36.461679534445324 19.790691563307508
166 1 1 26.003761161972655 35.703919534445326 20.243251563307506
167 1 1 26.210721161972653 35.57711953444532 21.607491563307505
168 1 1 27.261041161972653 36.480799534445325 21.607251563307504
169 1 1 28.379761161972652 37.100319534445326 22.140771563307503
170 1 1 29.455201161972653 37.155359534445324 21.268691563307502
171 1 1 29.448561161972652 38.435519534445326 21.7989315633075
172 1 1 30.164561161972653 39.59335953444533 21.5406915633075
173 1 1 30.755361161972655 40.641039534445326 22.2286915633075
174 1 1 31.572001161972654 39.75791953444533 22.9165315633075
175 1 1 32.60200116197265 38.85151953444533 23.1106115633075
176 1 1 32.00944116197265 38.94311953444533 21.861331563307502
177 1 1 33.088561161972656 38.51727953444533 22.619091563307503
178 1 1 33.29400116197266 37.30271953444533 21.9843715633075
179 1 1 33.67712116197266 36.00719953444533 21.675971563307503
180 1 1 34.709681161972654 36.522479534445324 22.442931563307503
181 1 1 33.70352116197265 37.22639953444532 23.084851563307502
182 1 1 34.01832116197265 38.02375953444532 24.173411563307504
183 1 1 34.72088116197265 38.21087953444532 22.993891563307503
184 1 1 35.115681161972645 38.42167953444532 24.305331563307504
185 1 1 35.282161161972645 37.068159534445314 24.059891563307506
186 1 1 35.157921161972645 35.70823953444531 24.295251563307506
187 1 1 34.42336116197264 36.85807953444531 24.536611563307506
188 1 1 33.872641161972645 36.13351953444531 23.491651563307506
189 1 1 34.32792116197265 35.066239534445316 24.249011563307505
190 1 1 34.05216116197265 33.762239534445314 23.870291563307504
191 1 1 34.743121161972645 34.94303953444531 24.089891563307503
192 1 1 34.663921161972645 34.52167953444531 25.407571563307503
193 1 1 33.68504116197265 33.561039534445314 25.605091563307504
194 1 1 32.88008116197265 33.10759953444531 26.637891563307505
195 1 1 32.354401161972646 32.629919534445314 25.448211563307506
196 1 1 31.908001161972646 31.367599534445315 25.091811563307505
197 1 1 31.256401161972647 30.989519534445314 23.928931563307504
198 1 1 32.514721161972645 31.378479534445315 24.359571563307505
199 1 1 33.68200116197264 30.743199534445317 23.967251563307503
200 1 1 32.965761161972644 30.228559534445317 25.035971563307502
201 2 1 18.470601763053057 34.26806731752839 12.684960956082945
202 2 1 19.301801763053057 34.99438731752839 11.847360956082944
203 2 1 19.057241763053057 33.63974731752839 11.688160956082944
204 2 1 18.242041763053056 32.78710731752839 10.961200956082944
205 2 1 19.039801763053056 32.99358731752839 9.847200956082943
206 2 1 19.856921763053055 32.91662731752839 10.963680956082943
207 2 1 19.733561763053054 34.294307317528386 11.046400956082943
208 2 1 18.393161763053055 34.219427317528385 11.389600956082942
209 2 1 19.364441763053055 34.20318731752838 12.377760956082943
210 2 1 18.112841763053055 33.66102731752838 12.133360956082942
211 2 1 17.731961763053054 32.98078731752838 13.278960956082942
212 2 1 17.197081763053053 32.010947317528384 14.111600956082942
213 2 1 17.057801763053053 32.791667317528386 15.247840956082943
214 2 1 16.263721763053052 32.32406731752839 16.282640956082943
215 2 1 16.122201763053052 30.953507317528388 16.42936095608294
216 2 1 15.115881763053052 30.756627317528388 17.361280956082943
217 2 1 15.917241763053052 31.611827317528387 16.622080956082943
218 2 1 16.805241763053054 32.11382731752839 15.684320956082942
219 2 1 16.286681763053053 32.86158731752839 14.639280956082942
220 2 1 15.079801763053053 32.40110731752839 14.137680956082942
221 2 1 13.773721763053054 31.947427317528394 14.046560956082942
222 2 1 13.970041763053054 32.071267317528395 15.412640956082942
223 2 1 13.780681763053053 32.815107317528394 16.566240956082943
224 2 1 15.143641763053054 33.03134731752839 16.690560956082944
225 2 1 13.758201763053055 33.021187317528394 16.668400956082944
226 2 1 14.609321763053055 33.749987317528394 15.853280956082944
227 2 1 15.388601763053055 34.0524673175284 14.748240956082943
228 2 1 15.332521763053055 32.717107317528395 15.113600956082944
229 2 1 14.499561763053055 33.1089473175284 14.077920956082945
230 2 1 15.039401763053055 31.902627317528395 14.494320956082944
231 2 1 16.302121763053055 31.646547317528395 15.004160956082945
232 2 1 15.139881763053054 31.984947317528395 14.329840956082945
233 2 1 14.147081763053054 31.485747317528396 15.157600956082945
234 2 1 13.844761763053054 30.329987317528396 14.455600956082945
235 2 1 13.467481763053053 29.997347317528394 15.746800956082945
236 2 1 12.662281763053054 29.297587317528393 16.631120956082945
237 2 1 12.784841763053054 30.557187317528392 16.066640956082946
238 2 1 14.049081763053053 31.12422731752839 16.070240956082944
239 2 1 14.908921763053053 31.031747317528392 14.987600956082945
240 2 1 14.222281763053052 30.33742731752839 15.970640956082946
241 2 1 15.018441763053053 29.22462731752839 15.751520956082945
242 2 1 15.777401763053053 30.14542731752839 16.455920956082945
243 2 1 15.570121763053052 31.17038731752839 15.546720956082945
244 2 1 16.44404176305305 30.53870731752839 16.416800956082945
245 2 1 17.39340176305305 30.297587317528393 15.436720956082945
246 2 1 18.478921763053048 30.763027317528394 14.712160956082945
247 2 1 19.27476176305305 29.659267317528393 14.450960956082945
248 2 1 20.06276176305305 30.156787317528394 13.425520956082945
249 2 1 19.69500176305305 31.086867317528394 14.384560956082945
250 2 1 19.91236176305305 29.993347317528393 15.207360956082944
251 2 1 18.57132176305305 29.819267317528393 15.509760956082944
252 2 1 17.59564176305305 30.786787317528393 15.331440956082945
253 2 1 18.23348176305305 29.732467317528393 14.697760956082945
254 2 1 17.53884176305305 30.162627317528393 13.578560956082946
255 2 1 17.66188176305305 29.277747317528394 14.637680956082946
256 2 1 18.45004176305305 28.452867317528394 15.423920956082945
257 2 1 17.64740176305305 27.775107317528395 16.327440956082945
258 2 1 17.14412176305305 28.975907317528396 16.801280956082945
259 2 1 17.93092176305305 29.341907317528396 15.721040956082945
260 2 1 17.97924176305305 28.045347317528396 15.234640956082945
261 2 1 18.33420176305305 29.125507317528395 14.442640956082945
262 2 1 16.978761763053047 29.315587317528397 14.658720956082945
263 2 1 17.689161763053047 29.212307317528396 15.843920956082945
264 2 1 17.578121763053048 30.574067317528396 15.612960956082945
265 2 1 17.030921763053048 31.709987317528395 16.187600956082946
266 2 1 17.101881763053047 32.91126731752839 15.500640956082947
267 2 1 15.983321763053047 33.09790731752839 16.29696095608295
268 2 1 16.798521763053046 33.33678731752839 17.391680956082947
269 2 1 17.750921763053046 32.54798731752839 18.016800956082946
270 2 1 17.176441763053045 31.391747317528388 18.519920956082945
271 2 1 16.297481763053046 31.003427317528388 19.518320956082945
272 2 1 15.505081763053045 30.100467317528388 20.208880956082947
273 2 1 16.011721763053046 30.106227317528386 18.919200956082946
274 2 1 14.638201763053047 30.272867317528387 18.842880956082947
275 2 1 15.246521763053048 31.474627317528387 18.517840956082946
276 2 1 14.479561763053049 32.51966731752839 19.007440956082945
277 2 1 15.413801763053048 33.47398731752839 19.376720956082945
278 2 1 14.368521763053048 33.08694731752839 18.553520956082945
279 2 1 13.210681763053048 33.62750731752839 19.089520956082946
280 2 1 12.278441763053047 33.304227317528394 18.116720956082947
281 2 1 12.132441763053047 32.528867317528395 19.25576095608295
282 2 1 13.087721763053047 33.27270731752839 18.58176095608295
283 2 1 12.262521763053046 32.76510731752839 17.59096095608295
284 2 1 10.937241763053045 33.03910731752839 17.88816095608295
285 2 1 12.184841763053045 32.57662731752839 17.50144095608295
286 2 1 11.962521763053045 33.827667317528395 18.05416095608295
287 2 1 11.158841763053045 34.566227317528394 18.90776095608295
288 2 1 11.783721763053045 34.7044673175284 17.67880095608295
289 2 1 12.341081763053044 34.4583873175284 18.923280956082948
290 2 1 13.576761763053044 35.0391873175284 18.686720956082947
291 2 1 13.788121763053043 33.8049473175284 19.280000956082947
292 2 1 13.994681763053043 35.0551073175284 19.840640956082947
293 2 1 14.638521763053042 35.9909473175284 20.634080956082947
294 2 1 15.354201763053043 36.7357473175284 19.710480956082947
295 2 1 14.601721763053042 37.5543073175284 20.537360956082946
296 2 1 14.157401763053043 36.2923073175284 20.897600956082947
297 2 1 13.383481763053043 35.445907317528395 20.119920956082947
298 2 1 13.941481763053043 34.47918731752839 19.298880956082947
299 2 1 14.111721763053042 33.12022731752839 19.088880956082946
300 2 1 15.088761763053043 33.36174731752839 18.136480956082945
301 2 1 14.286041763053042 32.34630731752839 17.641920956082945
302 2 1 14.224601763053043 30.993267317528392 17.349520956082944
303 2 1 13.789401763053043 30.28430731752839 18.457680956082946
304 2 1 13.684841763053043 30.32598731752839 19.838720956082945
305 2 1 14.717561763053043 30.92614731752839 19.136320956082944
306 2 1 15.883161763053042 30.35222731752839 18.654800956082944
307 2 1 16.636361763053042 29.25902731752839 19.051840956082945
308 2 1 16.15636176305304 27.97670731752839 18.839200956082944
309 2 1 15.143801763053041 28.20510731752839 17.921280956082946
310 2 1 14.159001763053041 28.72326731752839 17.095520956082947
311 2 1 12.821961763053041 28.56350731752839 17.422160956082948
312 2 1 12.85572176305304 29.79758731752839 16.793120956082948
313 2 1 12.02156176305304 30.90374731752839 16.81656095608295
314 2 1 13.16060176305304 30.11710731752839 16.75360095608295
315 2 1 14.29132176305304 29.32206731752839 16.85016095608295
316 2 1 15.37132176305304 29.68998731752839 16.06384095608295
317 2 1 14.20596176305304 30.109907317528393 15.442800956082948
318 2 1 14.203961763053039 28.796707317528394 15.884640956082947
319 2 1 14.61948176305304 29.696387317528394 14.916080956082947
320 2 1 15.119081763053039 30.418787317528395 15.987760956082948
321 2 1 15.86428176305304 30.231587317528394 14.834640956082948
322 2 1 15.37364176305304 31.165667317528396 15.732960956082948
323 2 1 15.148121763053041 30.130787317528394 16.626480956082947
324 2 1 15.154361763053041 30.672787317528396 15.351280956082947
325 2 1 16.36916176305304 30.048547317528396 15.585200956082947
326 2 1 15.777161763053039 30.305907317528394 16.811280956082946
327 2 1 15.58908176305304 31.678547317528395 16.793520956082947
328 2 1 16.25828176305304 31.041027317528396 15.761200956082947
329 2 1 17.039401763053043 30.206947317528396 16.544880956082945
330 2 1 15.911001763053044 30.063107317528395 15.753760956082946
331 2 1 16.737801763053042 30.986547317528395 16.373120956082946
332 2 1 17.779801763053044 31.895827317528394 16.286640956082945
333 2 1 17.987881763053043 30.538787317528392 16.099760956082946
334 2 1 18.379481763053043 29.282467317528393 15.665920956082946
335 2 1 18.87708176305304 28.338307317528393 16.549840956082946
336 2 1 17.92684176305304 27.667107317528394 15.797040956082945
337 2 1 18.72188176305304 28.505587317528395 16.561840956082946
338 2 1 17.95948176305304 29.112547317528396 15.576800956082947
339 2 1 19.03140176305304 29.611747317528398 14.854400956082946
340 2 1 18.37220176305304 30.6282273175284 14.182000956082947
341 2 1 19.08100176305304 29.5719073175284 13.632560956082946
342 2 1 19.907161763053043 28.4737473175284 13.455840956082946
343 2 1 20.791641763053043 27.5046273175284 13.010400956082947
344 2 1 19.717161763053042 27.3127873175284 12.156640956082947
345 2 1 20.84500176305304 27.1209473175284 12.938400956082948
346 2 1 19.817481763053042 26.5816673175284 12.181120956082948
347 2 1 20.14868176305304 25.2422273175284 12.052800956082947
348 2 1 18.962841763053042 25.4810273175284 11.376800956082947
349 2 1 17.911321763053042 26.1175073175284 10.736960956082948
350 2 1 16.865881763053043 26.3527073175284 11.615520956082948
351 2 1 17.533481763053043 25.3935873175284 10.870960956082948
352 2 1 16.313161763053042 24.7375073175284 10.887680956082948
353 2 1 15.350761763053042 24.958947317528402 9.915760956082947
354 2 1 14.923001763053042 24.397267317528403 8.723520956082947
355 2 1 14.851561763053041 25.3183873175284 7.6908009560829464
356 2 1 14.216041763053042 24.7283073175284 6.610160956082947
357 2 1 13.736761763053043 25.838627317528402 7.286640956082946
358 2 1 14.287881763053042 25.630067317528404 6.032560956082946
359 2 1 14.091481763053041 25.728467317528406 7.400720956082946
360 2 1 13.99244176305304 25.209987317528405 6.119600956082946
361 2 1 13.32996176305304 25.278947317528406 7.334720956082946
362 2 1 12.67772176305304 25.902707317528407 8.386160956082946
363 2 1 12.89788176305304 25.373267317528406 7.124720956082946
364 2 1 11.51404176305304 25.391427317528404 7.058000956082946
365 2 1 10.47084176305304 25.992067317528402 6.372000956082946
366 2 1 9.68676176305304 26.7337473175284 7.240960956082946
367 2 1 8.80604176305304 27.803427317528403 7.252880956082946
368 2 1 9.07468176305304 29.063667317528402 7.762560956082947
369 2 1 9.51588176305304 27.754627317528403 7.652640956082947
370 2 1 9.12364176305304 28.757587317528404 6.780720956082947
371 2 1 8.51188176305304 28.454947317528404 5.574880956082946
372 2 1 8.74668176305304 27.374147317528404 4.740080956082946
373 2 1 9.63356176305304 28.279267317528404 4.179520956082946
374 2 1 9.05588176305304 27.768787317528403 3.028160956082946
375 2 1 9.27868176305304 28.106627317528403 4.353360956082946
376 2 1 8.06884176305304 27.531987317528404 3.9982409560829457
377 2 1 8.77596176305304 28.723667317528406 3.9955209560829457
378 2 1 9.58676176305304 27.935347317528407 4.796240956082945
379 2 1 9.68244176305304 27.993187317528406 6.177360956082945
380 2 1 8.94500176305304 26.997587317528406 6.797920956082946
381 2 1 7.962201763053041 26.489267317528405 5.963920956082946
382 2 1 7.55988176305304 25.474307317528407 5.110720956082946
383 2 1 8.08724176305304 26.690947317528405 4.708480956082946
384 2 1 6.78676176305304 26.925747317528405 5.125040956082946
385 2 1 5.81092176305304 27.858867317528404 4.813680956082947
386 2 1 5.48908176305304 29.140467317528405 5.230640956082947
387 2 1 4.54060176305304 28.818227317528404 4.273360956082947
388 2 1 5.15372176305304 29.622227317528402 5.220800956082948
389 2 1 3.86804176305304 30.0521473175284 5.5075209560829474
390 2 1 3.71524176305304 28.776707317528402 6.026880956082947
391 2 1 4.41388176305304 29.930867317528403 6.3424009560829475
392 2 1 5.78076176305304 30.1329473175284 6.446720956082947
393 2 1 5.983481763053041 29.0942273175284 7.341120956082947
394 2 1 4.687561763053041 29.3674273175284 7.748560956082947
395 2 1 3.693321763053041 29.7909473175284 6.881520956082947
396 2 1 2.960201763053041 29.4965473175284 8.019920956082947
397 2 1 4.318761763053041 29.2526273175284 7.898880956082947
398 2 1 4.598201763053041 29.1467073175284 6.545920956082947
399 2 1 5.416281763053041 30.0995073175284 7.131440956082947
400 2 1 5.925081763053041 28.848787317528398 6.820000956082946
401 3 1 35.12830497209522 23.212453332576036 23.401133585154156
402 3 1 35.770304972095225 22.513893332576036 22.391293585154155
403 3 1 36.11254497209522 23.755333332576036 21.879853585154155
404 3 1 36.18806497209522 22.377013332576038 22.001613585154153
405 3 1 35.48230497209522 22.183333332576037 23.178173585154152
406 3 1 35.66854497209522 23.537893332576036 23.40313358515415
407 3 1 34.38046497209522 23.353413332576036 23.87929358515415
408 3 1 35.61198497209522 22.720373332576035 23.93073358515415
409 3 1 36.00086497209522 22.161573332576033 25.13761358515415
410 3 1 37.160544972095224 22.892693332576034 25.33905358515415
411 3 1 37.37174497209522 23.130373332576035 23.99041358515415
412 3 1 36.48694497209522 23.059413332576035 25.05441358515415
413 3 1 37.71582497209522 22.435813332576036 25.198813585154152
414 3 1 36.75502497209522 22.579093332576036 24.210813585154153
415 3 1 36.67390497209522 21.752213332576037 23.101933585154153
416 3 1 36.043424972095224 22.48181333257604 22.106813585154153
417 3 1 35.25262497209523 23.61789333257604 22.168973585154152
418 3 1 34.210624972095225 23.791173332576037 23.06577358515415
419 3 1 35.492544972095224 24.283573332576037 23.25049358515415
420 3 1 34.464944972095225 25.212933332576036 23.25881358515415
421 3 1 35.336784972095224 24.136773332576034 23.30153358515415
422 3 1 36.48150497209522 24.547893332576034 22.63785358515415
423 3 1 36.90518497209522 25.715653332576036 22.02401358515415
424 3 1 37.40534497209522 25.296293332576035 23.24633358515415
425 3 1 37.84982497209522 25.634053332576034 24.51449358515415
426 3 1 39.08614497209522 25.830133332576033 23.92025358515415
427 3 1 40.02566497209522 25.749493332576034 22.90489358515415
428 3 1 39.97870497209522 24.737813332576035 21.95929358515415
429 3 1 39.20774497209522 24.900453332576035 23.09905358515415
430 3 1 40.51838497209522 24.648133332576034 22.72705358515415
431 3 1 41.56062497209522 25.459013332576035 22.30745358515415
432 3 1 42.22182497209522 25.580213332576037 23.51913358515415
433 3 1 42.28038497209522 25.890533332576037 22.17001358515415
434 3 1 43.29262497209522 25.269413332576036 22.883853585154153
435 3 1 44.192304972095215 25.911173332576038 23.719773585154154
436 3 1 45.09878497209522 25.30125333257604 22.867613585154153
437 3 1 46.459984972095214 25.27597333257604 23.125213585154153
438 3 1 46.58806497209521 26.57973333257604 22.673933585154153
439 3 1 45.67110497209521 26.22429333257604 21.697773585154152
440 3 1 46.663264972095206 27.187813332576038 21.612813585154154
441 3 1 45.624624972095205 27.70845333257604 22.367933585154155
442 3 1 46.4009449720952 27.827013332576037 21.226413585154155
443 3 1 46.241904972095206 28.764533332576036 20.218493585154157
444 3 1 47.09566497209521 27.792373332576037 19.722653585154156
445 3 1 48.44774497209521 27.535893332576038 19.884093585154154
446 3 1 48.41942497209521 28.835653332576037 20.363453585154154
447 3 1 48.214144972095205 28.540053332576036 21.701613585154156
448 3 1 48.57142497209521 27.285333332576037 22.168573585154157
449 3 1 48.490784972095206 28.149813332576038 23.248413585154157
450 3 1 49.02654497209521 29.422613332576038 23.13529358515416
451 3 1 48.76718497209521 29.98461333257604 24.37505358515416
452 3 1 48.91638497209521 28.60709333257604 24.38649358515416
453 3 1 48.947424972095206 28.169813332576037 23.07209358515416
454 3 1 49.6682249720952 28.065493332576036 21.89329358515416
455 3 1 48.2889449720952 28.040373332576035 21.76313358515416
456 3 1 49.4213449720952 28.434453332576034 21.068653585154163
457 3 1 48.6664649720952 27.369493332576035 20.603773585154162
458 3 1 49.4347849720952 28.519893332576036 20.525133585154162
459 3 1 48.1937449720952 27.939733332576036 20.317053585154163
460 3 1 47.0987849720952 28.661013332576037 20.765373585154162
461 3 1 47.0841449720952 29.998133332576035 20.402253585154163
462 3 1 46.0697449720952 29.343013332576035 21.081773585154163
463 3 1 45.9857449720952 29.789893332576035 22.390733585154162
464 3 1 45.7675849720952 29.424773332576034 21.072013585154163