ITEM: TIMESTEP
0
ITEM: NUMBER OF ATOMS
4000
ITEM: BOX BOUNDS pp pp pp
0 50
0 50
0 50
ITEM: ATOMS id mol type x y z 
1 1 1 12.635105111554038 22.435255497710088 21.896467395243455
2 1 1 13.404065111554038 21.28509549771009 21.972947395243455
3 1 1 12.348065111554039 20.40069549771009 22.123427395243457
4 1 1 12.150065111554039 19.98109549771009 23.429107395243456
5 1 1 12.975745111554039 20.70613549771009 22.584867395243457
6 1 1 12.18974511155404 21.42445549771009 21.698227395243457
7 1 1 11.447025111554039 21.386295497710087 22.867427395243457
8 1 1 11.093105111554038 22.123015497710085 21.748547395243456
9 1 1 11.712465111554039 23.237415497710085 22.291347395243456
10 1 1 11.543025111554039 23.283975497710085 23.665827395243454
11 1 1 11.05990511155404 23.083415497710085 22.382787395243454
12 1 1 10.602385111554039 22.173735497710084 21.443027395243455
13 1 1 10.69926511155404 21.246055497710085 20.418307395243456
14 1 1 10.628705111554039 19.942455497710085 19.953827395243458
15 1 1 11.516465111554039 18.969735497710086 19.52294739524346
16 1 1 12.34190511155404 18.264695497710086 18.66182739524346
17 1 1 12.39670511155404 16.949735497710087 19.09510739524346
18 1 1 12.687505111554039 16.124215497710086 18.02078739524346
19 1 1 13.612945111554039 15.343095497710086 18.69422739524346
20 1 1 14.983505111554038 15.218295497710086 18.53278739524346
21 1 1 15.664545111554038 16.190775497710085 19.24734739524346
22 1 1 14.502385111554037 16.261175497710084 18.49622739524346
23 1 1 15.041105111554037 17.533975497710085 18.595827395243457
24 1 1 16.149905111554038 18.215095497710085 18.119667395243457
25 1 1 16.241425111554037 19.394695497710085 18.840787395243456
26 1 1 17.451665111554036 19.180695497710087 19.480867395243457
27 1 1 17.555345111554036 18.916775497710088 20.837187395243458
28 1 1 18.549665111554035 19.657015497710088 20.21806739524346
29 1 1 19.666625111554033 19.878295497710088 21.00758739524346
30 1 1 18.465905111554033 20.279495497710087 20.44422739524346
31 1 1 18.015345111554034 21.132455497710087 21.43894739524346
32 1 1 19.044305111554035 21.927095497710088 21.91838739524346
33 1 1 19.341185111554037 22.27965549771009 23.22518739524346
34 1 1 19.221665111554035 21.58293549771009 22.03334739524346
35 1 1 18.760625111554035 22.78029549771009 21.51014739524346
36 1 1 18.857745111554035 22.82141549771009 22.89174739524346
37 1 1 19.214945111554034 24.082695497710088 22.44262739524346
38 1 1 18.902145111554034 23.05253549771009 23.314947395243458
39 1 1 19.656705111554036 21.89053549771009 23.29286739524346
40 1 1 19.233665111554036 21.09389549771009 24.34462739524346
41 1 1 18.558865111554034 21.66933549771009 23.27990739524346
42 1 1 17.744705111554033 22.64461549771009 23.83310739524346
43 1 1 17.048385111554033 23.83589549771009 23.95886739524346
44 1 1 17.838625111554034 24.47997549771009 24.897427395243458
45 1 1 19.179505111554032 24.45157549771009 25.24574739524346
46 1 1 18.142865111554034 23.59757549771009 24.90478739524346
47 1 1 18.977665111554035 23.99069549771009 25.93846739524346
48 1 1 19.588625111554034 24.27157549771009 24.72702739524346
49 1 1 19.863905111554033 22.957975497710088 24.38278739524346
50 1 1 20.134705111554034 22.225735497710087 25.52758739524346
51 1 1 19.854705111554033 20.871095497710087 25.44774739524346
52 1 1 19.88438511155403 21.570135497710087 26.643747395243462
53 1 1 18.97862511155403 21.731095497710086 25.60766739524346
54 1 1 18.36422511155403 20.755335497710085 24.83926739524346
55 1 1 17.20366511155403 21.490775497710086 25.019027395243462
56 1 1 17.92606511155403 20.715895497710086 24.12574739524346
57 1 1 17.885105111554033 20.243575497710086 25.42766739524346
58 1 1 16.699025111554032 20.909735497710088 25.16414739524346
59 1 1 16.976305111554034 22.226935497710087 24.835667395243462
60 1 1 15.739905111554034 22.709335497710086 25.23422739524346
61 1 1 16.456625111554033 21.524695497710084 25.288707395243463
62 1 1 15.298305111554033 22.281175497710084 25.366787395243463
63 1 1 14.089745111554032 22.265175497710086 24.689267395243462
64 1 1 14.621825111554033 22.306455497710086 25.967987395243462
65 1 1 14.487265111554033 20.939175497710085 26.14790739524346
66 1 1 13.591665111554033 21.836455497710084 25.58870739524346
67 1 1 13.719105111554033 20.890215497710084 26.59294739524346
68 1 1 13.163665111554032 19.674695497710083 26.22702739524346
69 1 1 12.617345111554032 20.183895497710083 25.05998739524346
70 1 1 13.785585111554031 20.60829549771008 24.44750739524346
71 1 1 14.287345111554032 19.979895497710082 23.31902739524346
72 1 1 15.663025111554031 19.840695497710083 23.40902739524346
73 1 1 15.428545111554032 18.797335497710083 22.52790739524346
74 1 1 15.793425111554031 19.566855497710083 23.62102739524346
75 1 1 15.416065111554031 18.495255497710083 24.41430739524346
76 1 1 14.318785111554032 18.768695497710084 25.215187395243458
77 1 1 13.993505111554033 19.959975497710083 25.843667395243457
78 1 1 13.231985111554032 18.97549549771008 25.234707395243458
79 1 1 12.552545111554032 18.04357549771008 24.466707395243457
80 1 1 11.662705111554033 18.62453549771008 25.355987395243456
81 1 1 10.862945111554033 17.59829549771008 25.832867395243458
82 1 1 11.909585111554033 16.89533549771008 25.25822739524346
83 1 1 11.002545111554033 15.85613549771008 25.127267395243457
84 1 1 11.342465111554032 16.99189549771008 24.41006739524346
85 1 1 12.212865111554033 17.793815497710078 23.68950739524346
86 1 1 12.446545111554032 17.77117549771008 22.32390739524346
87 1 1 11.114545111554031 17.39109549771008 22.36102739524346
88 1 1 9.90534511155403 17.51333549771008 21.69558739524346
89 1 1 10.26190511155403 17.823735497710082 20.39310739524346
90 1 1 9.837665111554031 18.527895497710084 19.277667395243462
91 1 1 11.138145111554032 18.953255497710085 19.49662739524346
92 1 1 10.48782511155403 17.735575497710084 19.617187395243462
93 1 1 11.23070511155403 17.443255497710084 20.749747395243464
94 1 1 11.296465111554031 18.590455497710085 19.975347395243464
95 1 1 11.46718511155403 17.215415497710087 19.970227395243462
96 1 1 11.98982511155403 16.434775497710085 20.988787395243463
97 1 1 12.812385111554029 16.504695497710085 22.101587395243463
98 1 1 11.76526511155403 16.930215497710083 21.299987395243463
99 1 1 10.84198511155403 17.955255497710084 21.170547395243464
100 1 1 10.34910511155403 17.591015497710085 19.927747395243465
101 1 1 9.61830511155403 16.810215497710086 20.808707395243466
102 1 1 9.11422511155403 16.006535497710086 21.818707395243468
103 1 1 8.32438511155403 14.936535497710086 21.429827395243468
104 1 1 7.208705111554029 15.077095497710086 22.239427395243467
105 1 1 7.681825111554029 16.354695497710086 21.986147395243467
106 1 1 8.587825111554029 17.075815497710085 22.747107395243468
107 1 1 7.265825111554029 16.666215497710084 22.68118739524347
108 1 1 7.252065111554028 16.497895497710083 24.05654739524347
109 1 1 8.000065111554028 17.62565549771008 23.75846739524347
110 1 1 7.483265111554028 18.83613549771008 23.32518739524347
111 1 1 7.824545111554028 20.019655497710083 23.959747395243472
112 1 1 7.457905111554028 19.322535497710085 25.099747395243472
113 1 1 7.238225111554027 20.523095497710084 24.443587395243473
114 1 1 7.781425111554027 21.473575497710083 23.59414739524347
115 1 1 7.121825111554027 21.872055497710083 22.44262739524347
116 1 1 6.406145111554027 22.641015497710082 23.34614739524347
117 1 1 5.759985111554027 22.349495497710084 22.155507395243472
118 1 1 6.0399051115540265 23.423975497710085 22.984387395243473
119 1 1 6.644465111554027 24.548615497710085 23.522547395243475
120 1 1 7.9755051115540265 24.781015497710083 23.829907395243474
121 1 1 9.210385111554027 24.181175497710083 24.017907395243473
122 1 1 10.411905111554027 24.693575497710082 23.555507395243474
123 1 1 10.955265111554027 24.618935497710083 22.283027395243472
124 1 1 11.232145111554027 24.198215497710084 23.573907395243474
125 1 1 10.449665111554028 23.541655497710085 22.637667395243472
126 1 1 11.690625111554027 22.967655497710084 22.412707395243473
127 1 1 11.370625111554027 23.966935497710082 21.507667395243473
128 1 1 10.498785111554026 25.038215497710084 21.618947395243474
129 1 1 11.840145111554026 25.339335497710085 21.793107395243474
130 1 1 11.148945111554026 24.599815497710086 20.846867395243475
131 1 1 10.765185111554025 23.269495497710086 20.793827395243476
132 1 1 10.617425111554025 24.553095497710085 21.294387395243476
133 1 1 11.671985111554026 24.498775497710085 22.191667395243474
134 1 1 12.606785111554025 25.485975497710086 21.923827395243475
135 1 1 13.050465111554026 25.372295497710088 20.616067395243476
136 1 1 13.510545111554025 24.614055497710087 21.680707395243477
137 1 1 14.746945111554025 25.10725549771009 22.065507395243475
138 1 1 15.548945111554024 24.54389549771009 23.044947395243476
139 1 1 14.990785111554024 23.48541549771009 22.346387395243475
140 1 1 16.322625111554025 23.84389549771009 22.479107395243474
141 1 1 15.860145111554026 22.54901549771009 22.650867395243473
142 1 1 15.166145111554025 23.62861549771009 22.128467395243472
143 1 1 14.099345111554024 23.86117549771009 22.981667395243473
144 1 1 14.504385111554024 24.50181549771009 21.821587395243473
145 1 1 15.592785111554024 25.12709549771009 22.408387395243473
146 1 1 16.955185111554023 24.89429549771009 22.50790739524347
147 1 1 16.917345111554024 24.14477549771009 23.67278739524347
148 1 1 15.634145111554023 24.56189549771009 23.988147395243473
149 1 1 14.550385111554023 23.74173549771009 23.718067395243473
150 1 1 15.343265111554024 23.86333549771009 24.847827395243474
151 1 1 15.549025111554023 22.49309549771009 24.863027395243474
152 1 1 15.416225111554024 23.30757549771009 25.976067395243476
153 1 1 14.159425111554024 23.33701549771009 26.558947395243475
154 1 1 14.564545111554024 23.62765549771009 27.851827395243475
155 1 1 15.763985111554023 23.114855497710092 27.384467395243476
156 1 1 14.411025111554023 23.403015497710093 27.303587395243476
157 1 1 14.970225111554024 22.576375497710092 26.342387395243474
158 1 1 14.513745111554023 22.22149549771009 25.083187395243474
159 1 1 14.210065111554023 22.30477549771009 23.733747395243473
160 1 1 14.162625111554023 21.86389549771009 22.420947395243473
161 1 1 13.159025111554023 21.128855497710088 23.031027395243473
162 1 1 12.760145111554023 22.45381549771009 23.104307395243474
163 1 1 11.845745111554022 21.41381549771009 23.057267395243475
164 1 1 12.541505111554022 21.70973549771009 21.895987395243473
165 1 1 11.186865111554022 21.49301549771009 22.090467395243472
166 1 1 10.323985111554022 22.27021549771009 22.84638739524347
167 1 1 10.721425111554021 23.53157549771009 23.259827395243473
168 1 1 9.945425111554021 22.66365549771009 22.508547395243472
169 1 1 9.703345111554022 23.63621549771009 21.55166739524347
170 1 1 10.147745111554022 24.73005549771009 20.82630739524347
171 1 1 9.529185111554021 25.18117549771009 21.98134739524347
172 1 1 8.575265111554021 24.21373549771009 21.708707395243472
173 1 1 9.285745111554021 23.53381549771009 22.684867395243472
174 1 1 8.55110511155402 22.44533549771009 22.242547395243474
175 1 1 8.214705111554021 21.15869549771009 21.853187395243474
176 1 1 8.15630511155402 22.53597549771009 21.713027395243472
177 1 1 7.354545111554021 23.20181549771009 22.62614739524347
178 1 1 6.395025111554021 22.89965549771009 21.67326739524347
179 1 1 6.538625111554021 23.73325549771009 20.57566739524347
180 1 1 5.723425111554021 24.81677549771009 20.290627395243472
181 1 1 5.910785111554021 23.749815497710088 19.42662739524347
182 1 1 7.282785111554021 23.66525549771009 19.601507395243473
183 1 1 7.231025111554021 23.43973549771009 18.235347395243473
184 1 1 8.116785111554021 22.37405549771009 18.233907395243474
185 1 1 8.172705111554022 21.329415497710087 19.142627395243473
186 1 1 8.745825111554021 22.57413549771009 19.348227395243473
187 1 1 7.549105111554021 22.67229549771009 18.656627395243472
188 1 1 7.385905111554021 23.907015497710088 19.264067395243472
189 1 1 6.588465111554021 23.344455497710086 18.280387395243473
190 1 1 7.283505111554021 24.521815497710087 18.50582739524347
191 1 1 6.050945111554021 23.906455497710088 18.65414739524347
192 1 1 6.49422511155402 24.717575497710087 19.68638739524347
193 1 1 7.41582511155402 23.691975497710086 19.823747395243473
194 1 1 7.72222511155402 23.435735497710088 18.496947395243474
195 1 1 8.70294511155402 23.734295497710086 19.429187395243474
196 1 1 9.441425111554022 23.178535497710087 20.461507395243473
197 1 1 9.367745111554022 24.141495497710086 19.467987395243473
198 1 1 10.166305111554022 23.556295497710085 20.43742739524347
199 1 1 9.963985111554022 22.760615497710084 21.553667395243473
200 1 1 9.415105111554022 21.888695497710085 20.627107395243474
201 2 1 30.724113551087846 15.348648612578437 21.499024999913523
202 2 1 30.463713551087846 13.991848612578437 21.393664999913522
203 2 1 30.647713551087847 15.364648612578437 21.43310499991352
204 2 1 31.83019355108785 16.008808612578438 21.759824999913523
205 2 1 30.98931355108785 17.109608612578437 21.794624999913523
206 2 1 31.78915355108785 16.326968612578437 20.977424999913524
207 2 1 33.14667355108785 16.200568612578437 20.729984999913523
208 2 1 31.996113551087852 16.709128612578436 21.310784999913523
209 2 1 32.166113551087854 15.775768612578435 22.320704999913524
210 2 1 31.957393551087854 17.028088612578436 22.875984999913523
211 2 1 31.868433551087854 15.892888612578437 23.665584999913523
212 2 1 32.68867355108785 16.999768612578436 23.517664999913524
213 2 1 33.66899355108785 17.361368612578435 24.427584999913524
214 2 1 34.80491355108785 17.247928612578434 23.642144999913523
215 2 1 34.00291355108785 16.617048612578433 22.704704999913524
216 2 1 33.34339355108785 17.612728612578433 22.002064999913525
217 2 1 33.07547355108785 16.934968612578434 20.823584999913525
218 2 1 33.545793551087854 16.560808612578434 22.072144999913526
219 2 1 32.45819355108785 16.416248612578435 21.225744999913527
220 2 1 33.16747355108785 15.376328612578435 20.646704999913528
221 2 1 33.72931355108785 14.510568612578435 21.571344999913528
222 2 1 32.71955355108785 15.451048612578436 21.697744999913528
223 2 1 32.93731355108785 16.695288612578437 21.128144999913527
224 2 1 32.33259355108785 17.484968612578438 22.092944999913527
225 2 1 32.811233551087845 17.755528612578438 23.364784999913528
226 2 1 32.007153551087846 18.880648612578437 23.451904999913527
227 2 1 31.792753551087845 20.244088612578437 23.575584999913527
228 2 1 32.42643355108785 21.44872861257844 23.834704999913527
229 2 1 33.30283355108784 22.326488612578437 24.452304999913526
230 2 1 32.790193551087846 22.59128861257844 25.712144999913527
231 2 1 32.185473551087846 22.078168612578438 24.575824999913525
232 2 1 31.459073551087847 20.93576861257844 24.280064999913524
233 2 1 31.376593551087847 21.993128612578438 25.171744999913525
234 2 1 31.581313551087845 20.983848612578438 24.244704999913523
235 2 1 30.867313551087847 20.912248612578438 25.430144999913523
236 2 1 31.060673551087845 21.88576861257844 26.397104999913523
237 2 1 31.774753551087844 21.036968612578438 27.227424999913524
238 2 1 32.67539355108784 20.768968612578437 26.209024999913524
239 2 1 32.30931355108785 21.335688612578437 24.998784999913525
240 2 1 32.05755355108785 20.400328612578438 24.007984999913525
241 2 1 32.60051355108785 21.434488612578438 23.262384999913525
242 2 1 32.67691355108785 20.275608612578438 22.506624999913527
243 2 1 31.87475355108785 20.92984861257844 21.585584999913525
244 2 1 31.45355355108785 21.11600861257844 22.892464999913525
245 2 1 32.33315355108785 20.27096861257844 23.549984999913526
246 2 1 33.467393551087845 19.940488612578438 24.274064999913527
247 2 1 32.625793551087845 20.63152861257844 25.130864999913527
248 2 1 32.64387355108784 20.95704861257844 23.784144999913526
249 2 1 31.603473551087845 20.26880861257844 24.387504999913524
250 2 1 32.94163355108785 19.95376861257844 24.214304999913523
251 2 1 33.86723355108785 20.53096861257844 25.06870499991352
252 2 1 34.25131355108785 21.65344861257844 25.784704999913522
253 2 1 34.13899355108785 21.44800861257844 27.150464999913524
254 2 1 33.80419355108785 22.24896861257844 26.070464999913526
255 2 1 34.91307355108785 21.67688861257844 26.672944999913526
256 2 1 36.22627355108785 21.375528612578442 26.349184999913525
257 2 1 37.30243355108785 21.936488612578444 25.680384999913525
258 2 1 36.57891355108785 21.254088612578443 24.715584999913524
259 2 1 37.52499355108785 21.45296861257844 23.722864999913526
260 2 1 38.70347355108785 21.561128612578443 23.002144999913526
261 2 1 38.08883355108785 22.22848861257844 24.049504999913527
262 2 1 39.003953551087854 22.10136861257844 25.082224999913528
263 2 1 38.50819355108786 21.37408861257844 24.01198499991353
264 2 1 39.82027355108786 21.25584861257844 24.44166499991353
265 2 1 39.756913551087855 22.50512861257844 25.03774499991353
266 2 1 40.23811355108786 23.01552861257844 26.23270499991353
267 2 1 40.73867355108786 21.96392861257844 25.48206499991353
268 2 1 41.612593551087855 21.168808612578438 26.20598499991353
269 2 1 42.12003355108786 22.338968612578437 25.66430499991353
270 2 1 42.85027355108786 21.287848612578436 26.19526499991353
271 2 1 42.03907355108786 22.410728612578435 26.15910499991353
272 2 1 43.01579355108786 21.689688612578436 25.49110499991353
273 2 1 43.92571355108786 22.189688612578436 24.57350499991353
274 2 1 44.40579355108786 21.152168612578436 25.35646499991353
275 2 1 44.96491355108786 21.265208612578437 26.61926499991353
276 2 1 43.70051355108786 20.982648612578437 27.11062499991353
277 2 1 43.412113551087856 19.663608612578436 26.79942499991353
278 2 1 42.25867355108785 19.360728612578434 26.09390499991353
279 2 1 41.601553551087854 19.481688612578434 27.307824999913528
280 2 1 41.806433551087856 20.054968612578435 26.063104999913527
281 2 1 41.63635355108786 19.783928612578435 27.411264999913527
282 2 1 41.99955355108786 18.498088612578435 27.778144999913525
283 2 1 42.84603355108786 18.850488612578435 26.739264999913527
284 2 1 41.812113551087855 18.767768612578436 25.820464999913526
285 2 1 42.052913551087855 17.661688612578438 26.619664999913525
286 2 1 41.82491355108785 16.649848612578438 25.700864999913524
287 2 1 42.81483355108785 17.245128612578437 24.935584999913523
288 2 1 43.207953551087854 15.978008612578437 25.335264999913523
289 2 1 44.07435355108785 15.860648612578437 26.410224999913524
290 2 1 42.72283355108785 15.962488612578436 26.698144999913524
291 2 1 43.43123355108785 15.201608612578436 25.782144999913523
292 2 1 42.89659355108785 16.387288612578438 26.259984999913524
293 2 1 42.158433551087846 17.23120861257844 27.074224999913525
294 2 1 41.530993551087846 17.489768612578438 28.282304999913524
295 2 1 41.702913551087846 16.557448612578437 27.271664999913526
296 2 1 40.821393551087844 15.509128612578436 27.481584999913526
297 2 1 40.028993551087844 15.652088612578437 28.609264999913528
298 2 1 39.66267355108784 15.586648612578436 29.943904999913528
299 2 1 38.56187355108784 15.748968612578436 29.11806499991353
300 2 1 39.87155355108784 15.582088612578435 28.69726499991353
301 2 1 41.05739355108784 15.294168612578435 28.04070499991353
302 2 1 42.09451355108784 15.784408612578435 28.81782499991353
303 2 1 42.573073551087845 16.033288612578435 27.54142499991353
304 2 1 41.28171355108785 16.535048612578436 27.56638499991353
305 2 1 41.794193551087844 16.388168612578436 26.287344999913532
306 2 1 41.77771355108784 17.410008612578437 25.351504999913534
307 2 1 40.961953551087845 18.02360861257844 26.288544999913533
308 2 1 40.79955355108785 19.25464861257844 26.903504999913533
309 2 1 41.10203355108785 20.39024861257844 26.169424999913534
310 2 1 39.97091355108785 21.13272861257844 26.468304999913535
311 2 1 39.78787355108785 22.41200861257844 25.968304999913535
312 2 1 40.39915355108785 23.37176861257844 25.177744999913536
313 2 1 41.37611355108785 24.11408861257844 24.533904999913535
314 2 1 40.639153551087844 24.80560861257844 25.481984999913536
315 2 1 40.704833551087845 25.92224861257844 26.299584999913534
316 2 1 41.588833551087845 24.86712861257844 26.140704999913535
317 2 1 41.03651355108784 25.36176861257844 27.311344999913533
318 2 1 40.84083355108784 24.48464861257844 26.256704999913534
319 2 1 40.03979355108784 24.98024861257844 25.240464999913534
320 2 1 39.11187355108784 24.14848861257844 25.846304999913535
321 2 1 40.43051355108784 23.76168861257844 25.668464999913535
322 2 1 39.16107355108784 24.29312861257844 25.506704999913534
323 2 1 37.96787355108784 24.91784861257844 25.832304999913536
324 2 1 39.01899355108784 24.71712861257844 24.952064999913535
325 2 1 40.07299355108784 23.85760861257844 24.686864999913535
326 2 1 40.970433551087844 24.62352861257844 23.960144999913535
327 2 1 41.48571355108784 23.50408861257844 24.593424999913534
328 2 1 40.305073551087844 22.931848612578438 24.147744999913535
329 2 1 39.264113551087846 22.49496861257844 24.951264999913533
330 2 1 39.650033551087844 23.80512861257844 24.717984999913533
331 2 1 39.83331355108785 25.15760861257844 24.95750499991353
332 2 1 40.13363355108785 24.46576861257844 23.795024999913533
333 2 1 39.98723355108785 24.02584861257844 22.489184999913533
334 2 1 41.173633551087846 24.74080861257844 22.525024999913533
335 2 1 40.607953551087846 25.38704861257844 21.437664999913533
336 2 1 41.64075355108785 25.03752861257844 22.292704999913532
337 2 1 41.52787355108785 23.77064861257844 22.84246499991353
338 2 1 40.99403355108785 23.08616861257844 23.92246499991353
339 2 1 40.68947355108785 23.86488861257844 22.817584999913528
340 2 1 39.44307355108785 23.99736861257844 22.226944999913528
341 2 1 39.960433551087846 25.19296861257844 22.699184999913527
342 2 1 39.21091355108785 24.03392861257844 22.820064999913527
343 2 1 40.04091355108785 25.14344861257844 22.823424999913527
344 2 1 41.05043355108785 25.34784861257844 21.896544999913527
345 2 1 41.37523355108785 25.08336861257844 20.575664999913528
346 2 1 41.094593551087854 25.77824861257844 19.410144999913527
347 2 1 42.12491355108786 25.85832861257844 20.333264999913528
348 2 1 42.36379355108786 26.60384861257844 19.189904999913526
349 2 1 42.042753551087856 25.35248861257844 19.690944999913526
350 2 1 41.424113551087856 24.99080861257844 20.876944999913526
351 2 1 42.44859355108785 25.78464861257844 21.367264999913527
352 2 1 41.335553551087855 25.20336861257844 20.781424999913526
353 2 1 41.246593551087855 26.24384861257844 21.692224999913527
354 2 1 42.47531355108786 26.852568612578438 21.492944999913526
355 2 1 43.85707355108786 26.859528612578437 21.596624999913526
356 2 1 44.21715355108786 27.892088612578437 22.447504999913527
357 2 1 45.21715355108786 28.851208612578436 22.451264999913526
358 2 1 44.67707355108786 28.377688612578435 23.636144999913526
359 2 1 44.27819355108786 27.406968612578435 24.541024999913525
360 2 1 45.39579355108786 26.588408612578434 24.569824999913525
361 2 1 44.55483355108786 25.499688612578435 24.735344999913526
362 2 1 43.70859355108786 25.630008612578436 23.645904999913526
363 2 1 42.37483355108786 25.999528612578438 23.579104999913525
364 2 1 43.53235355108786 26.758088612578437 23.647984999913525
365 2 1 42.19819355108786 27.080008612578435 23.838784999913525
366 2 1 43.02699355108786 27.992808612578436 24.470944999913524
367 2 1 43.30387355108786 26.742808612578436 23.940944999913523
368 2 1 42.27275355108786 27.663448612578435 24.03558499991352
369 2 1 43.38363355108786 28.477128612578436 24.19022499991352
370 2 1 44.229473551087864 28.851448612578437 25.221904999913523
371 2 1 44.97875355108786 29.957688612578437 24.854704999913523
372 2 1 43.940193551087866 29.040648612578437 24.875904999913523
373 2 1 42.696433551087864 29.599528612578435 24.629664999913523
374 2 1 42.14843355108786 28.398408612578436 24.208944999913523
375 2 1 41.86747355108786 28.472728612578436 22.854064999913522
376 2 1 41.089633551087864 28.755928612578437 21.74278499991352
377 2 1 41.416193551087865 29.728328612578437 22.67430499991352
378 2 1 42.62051355108787 29.550008612578438 22.01262499991352
379 2 1 41.78531355108787 29.789528612578437 20.93334499991352
380 2 1 41.18427355108787 31.015928612578435 20.69950499991352
381 2 1 40.44483355108787 31.797688612578433 19.82654499991352
382 2 1 41.210113551087865 32.87640861257843 19.41326499991352
383 2 1 41.02555355108787 33.46160861257843 20.65558499991352
384 2 1 40.47507355108787 34.36488861257843 19.760544999913517
385 2 1 39.720593551087866 34.76248861257843 18.668464999913517
386 2 1 38.50595355108786 34.39808861257843 18.11014499991352
387 2 1 38.626433551087864 35.77080861257843 17.96542499991352
388 2 1 38.736753551087865 35.775208612578425 19.34662499991352
389 2 1 38.30667355108787 37.082248612578425 19.183744999913518
390 2 1 38.486753551087865 35.78712861257843 18.72510499991352
391 2 1 38.05707355108787 37.046568612578426 19.11134499991352
392 2 1 38.73259355108787 36.15728861257843 18.29102499991352
393 2 1 38.632433551087864 36.66552861257843 19.57622499991352
394 2 1 39.40507355108787 37.61256861257843 20.22910499991352
395 2 1 40.735793551087866 37.29080861257843 20.44278499991352
396 2 1 42.06699355108787 36.91544861257843 20.358944999913522
397 2 1 41.25259355108787 35.80296861257843 20.22166499991352
398 2 1 41.53955355108787 34.44752861257843 20.209344999913522
399 2 1 41.15571355108787 35.60728861257843 19.555344999913522
400 2 1 41.45155355108787 34.39664861257843 18.949664999913523
401 3 1 16.306257067297718 15.271235129145982 34.973632552130915
402 3 1 17.15129706729772 14.327235129145983 35.534832552130915
403 3 1 16.13681706729772 14.499955129145983 36.46267255213092
404 3 1 17.26849706729772 13.959715129145982 35.87331255213092
405 3 1 17.15161706729772 13.778595129145982 37.24203255213092
406 3 1 17.079217067297723 13.882035129145983 35.86203255213092
407 3 1 18.129777067297724 13.228755129145982 35.23795255213092
408 3 1 17.786097067297725 12.016995129145982 34.660352552130924
409 3 1 16.720737067297726 11.323235129145981 34.109232552130926
410 3 1 15.589137067297726 11.331715129145982 34.908832552130924
411 3 1 14.846737067297726 10.512755129145981 35.74435255213093
412 3 1 15.223697067297726 9.69267512914598 36.79571255213093
413 3 1 15.712017067297726 8.39923512914598 36.70235255213093
414 3 1 15.828737067297727 8.335635129145981 38.08155255213093
415 3 1 16.222097067297728 9.661315129145981 37.99403255213093
416 3 1 16.30249706729773 11.041875129145982 38.081792552130935
417 3 1 16.970897067297727 11.726595129145982 37.079552552130934
418 3 1 17.35401706729773 13.026115129145982 37.37035255213093
419 3 1 17.86001706729773 13.601395129145981 36.215792552130935
420 3 1 17.46849706729773 12.325475129145982 36.58843255213093
421 3 1 18.38441706729773 13.206435129145982 37.14083255213093
422 3 1 18.869537067297728 11.929715129145983 37.374992552130934
423 3 1 17.58601706729773 11.909795129145982 36.85347255213093
424 3 1 18.24937706729773 13.125955129145982 36.824112552130934
425 3 1 18.51913706729773 13.983955129145983 37.878112552130936
426 3 1 19.72825706729773 13.795875129145983 37.22795255213094
427 3 1 20.85153706729773 12.985555129145983 37.27011255213094
428 3 1 21.42785706729773 14.194435129145983 37.62563255213094
429 3 1 20.60145706729773 14.296275129145982 36.51811255213094
430 3 1 19.53193706729773 14.901555129145983 37.15811255213094
431 3 1 18.86945706729773 14.286675129145983 36.10779255213094
432 3 1 18.85113706729773 13.553795129145984 37.283712552130936
433 3 1 18.043777067297732 14.214195129145985 38.19595255213093
434 3 1 18.775057067297734 14.633555129145984 37.096272552130934
435 3 1 17.941217067297735 13.704275129145984 37.697232552130934
436 3 1 16.674017067297736 13.241395129145983 38.01323255213094
437 3 1 16.832417067297737 11.915715129145983 37.642432552130934
438 3 1 17.470737067297737 13.137715129145983 37.78123255213094
439 3 1 16.544577067297737 14.137635129145982 38.030752552130934
440 3 1 17.328257067297738 13.819635129145983 36.93323255213093
441 3 1 18.285217067297737 14.747715129145982 37.31139255213093
442 3 1 16.977137067297736 14.343315129145982 37.524192552130934
443 3 1 15.738817067297736 14.896675129145981 37.24083255213093
444 3 1 14.480177067297737 15.475315129145981 37.20651255213093
445 3 1 13.287217067297737 15.292595129145981 36.52571255213093
446 3 1 12.737697067297738 14.426515129145981 35.59411255213093
447 3 1 13.126417067297737 15.46763512914598 34.76643255213093
448 3 1 11.926737067297736 15.44347512914598 35.45939255213093
449 3 1 11.853457067297736 16.55443512914598 36.28427255213093
450 3 1 11.198977067297736 17.07059512914598 37.39123255213093
451 3 1 11.072897067297736 16.594915129145978 36.09595255213093
452 3 1 10.018737067297737 16.16611512914598 35.30539255213093
453 3 1 11.331937067297737 16.55163512914598 35.52219255213093
454 3 1 11.556417067297737 15.297635129145979 36.06731255213093
455 3 1 10.720177067297737 14.362995129145979 35.47811255213093
456 3 1 10.833617067297737 13.32723512914598 34.56467255213093
457 3 1 10.114017067297738 13.484755129145979 35.73835255213093
458 3 1 10.044337067297738 14.02355512914598 34.46371255213093
459 3 1 10.568097067297737 13.156835129145978 35.40947255213093
460 3 1 11.803457067297737 12.585555129145979 35.15003255213093
461 3 1 11.510497067297736 11.469555129145979 35.91731255213093
462 3 1 12.696017067297737 11.616995129145979 35.21539255213093
463 3 1 12.301537067297737 12.91915512914598 35.47771255213093
464 3 1 11.043057067297736 13.23571512914598 34.99195255213093
465 3 1 9.971377067297736 12.79651512914598 35.752592552130935
466 3 1 10.610417067297735 12.67099512914598 36.975712552130936
467 3 1 9.430017067297735 11.959875129145981 37.119712552130935
468 3 1 9.463537067297734 10.978435129145982 38.09731255213094
469 3 1 10.136417067297733 11.732515129145982 39.045152552130936
470 3 1 10.622497067297733 10.678835129145982 38.28795255213094