# Items: TimeSteps
0 
     40000     atoms
         1     atom types
    0.0000   49.4975 xlo xhi
    0.0000   49.4975 ylo yhi
    0.0000   49.4975 zlo zhi

Atoms
1 1 1 6 27 8
2 1 1 6 26 7
3 1 1 7 25 7
4 1 1 7 26 6
5 1 1 6 25 6
6 1 1 6 25 7
7 1 1 7 24 7
8 1 1 7 23 8
9 1 1 6 23 8
10 1 1 6 24 8
11 1 1 6 24 9
12 1 1 6 24 10
13 1 1 6 25 11
14 1 1 6 25 11
15 1 1 6 25 12
16 1 1 7 25 11
17 1 1 8 25 12
18 1 1 8 26 11
19 1 1 8 26 11
20 1 1 8 27 10
21 1 1 9 26 10
22 1 1 10 26 9
23 1 1 10 27 10
24 1 1 9 28 10
25 1 1 10 28 9
26 1 1 11 28 9
27 1 1 11 28 8
28 1 1 11 27 8
29 1 1 11 28 9
30 1 1 12 28 10
31 1 1 13 28 10
32 1 1 13 28 11
33 1 1 13 27 11
34 1 1 13 28 11
35 1 1 13 27 12
36 1 1 14 28 12
37 1 1 14 28 11
38 1 1 13 28 11
39 1 1 13 29 11
40 1 1 12 29 10
41 1 1 11 30 10
42 1 1 11 30 9
43 1 1 10 30 10
44 1 1 10 29 11
45 1 1 10 30 11
46 1 1 9 30 11
47 1 1 9 30 12
48 1 1 10 29 12
49 1 1 10 28 13
50 1 1 10 29 13
51 1 1 11 29 13
52 1 1 11 28 13
53 1 1 11 28 13
54 1 1 11 27 13
55 1 1 11 27 13
56 1 1 11 26 14
57 1 1 11 25 13
58 1 1 11 26 13
59 1 1 11 25 12
60 1 1 10 25 12
61 1 1 10 25 13
62 1 1 10 26 12
63 1 1 10 25 11
64 1 1 11 25 11
65 1 1 11 25 11
66 1 1 11 25 10
67 1 1 11 25 9
68 1 1 12 25 8
69 1 1 13 24 8
70 1 1 13 25 8
71 1 1 13 24 8
72 1 1 13 24 7
73 1 1 13 25 6
74 1 1 12 24 6
75 1 1 13 24 6
76 1 1 13 25 6
77 1 1 13 25 5
78 1 1 13 25 4
79 1 1 13 25 4
80 1 1 14 25 4
81 1 1 13 26 4
82 1 1 14 26 5
83 1 1 13 26 6
84 1 1 14 26 6
85 1 1 13 26 7
86 1 1 13 27 6
87 1 1 13 26 6
88 1 1 12 26 7
89 1 1 12 27 8
90 1 1 12 26 8
91 1 1 11 25 8
92 1 1 12 25 8
93 1 1 12 25 7
94 1 1 11 25 7
95 1 1 11 25 8
96 1 1 11 26 8
97 1 1 11 27 8
98 1 1 10 27 8
99 1 1 9 27 8
100 1 1 9 28 7
101 1 1 8 28 7
102 1 1 9 29 7
103 1 1 10 29 6
104 1 1 9 30 6
105 1 1 10 30 7
106 1 1 10 30 6
107 1 1 9 30 6
108 1 1 8 30 6
109 1 1 9 31 6
110 1 1 8 31 7
111 1 1 8 31 6
112 1 1 8 30 6
113 1 1 7 30 6
114 1 1 6 31 6
115 1 1 7 32 6
116 1 1 8 32 6
117 1 1 8 33 6
118 1 1 8 33 7
119 1 1 9 33 7
120 1 1 9 34 6
121 1 1 8 33 6
122 1 1 8 33 6
123 1 1 8 33 5
124 1 1 8 33 4
125 1 1 8 34 4
126 1 1 8 33 4
127 1 1 9 34 4
128 1 1 8 35 4
129 1 1 8 35 3
130 1 1 7 34 3
131 1 1 8 34 4
132 1 1 7 35 4
133 1 1 7 35 4
134 1 1 7 35 5
135 1 1 8 35 6
136 1 1 8 34 6
137 1 1 8 34 6
138 1 1 8 35 6
139 1 1 8 35 7
140 1 1 7 35 6
141 1 1 6 35 6
142 1 1 6 35 6
143 1 1 5 36 6
144 1 1 5 37 6
145 1 1 4 37 7
146 1 1 4 36 7
147 1 1 4 35 8
148 1 1 3 35 7
149 1 1 2 35 7
150 1 1 2 34 6
151 1 1 3 33 6
152 1 1 2 33 6
153 1 1 2 32 7
154 1 1 3 32 6
155 1 1 4 31 6
156 1 1 3 30 6
157 1 1 2 30 6
158 1 1 1 30 6
159 1 1 2 30 7
160 1 1 1 30 7
161 1 1 2 29 7
162 1 1 1 29 8
163 1 1 1 28 8
164 1 1 2 28 8
165 1 1 2 27 8
166 1 1 2 28 7
167 1 1 1 28 8
168 1 1 1 27 8
169 1 1 1 26 8
170 1 1 0 27 8
171 1 1 49 27 9
172 1 1 48 28 9
173 1 1 48 28 8
174 1 1 49 28 8
175 1 1 48 27 8
176 1 1 47 27 9
177 1 1 47 28 9
178 1 1 47 28 8
179 1 1 47 28 8
180 1 1 47 29 8
181 1 1 47 30 8
182 1 1 46 30 8
183 1 1 47 29 8
184 1 1 47 30 7
185 1 1 47 30 8
186 1 1 47 30 7
187 1 1 48 31 7
188 1 1 48 32 8
189 1 1 48 31 8
190 1 1 49 30 8
191 1 1 49 30 8
192 1 1 49 29 8
193 1 1 49 28 8
194 1 1 0 28 7
195 1 1 0 29 6
196 1 1 49 28 6
197 1 1 49 28 6
198 1 1 48 28 5
199 1 1 48 27 4
200 1 1 47 28 4
201 2 1 21 35 37
202 2 1 21 35 37
203 2 1 21 35 37
204 2 1 21 35 36
205 2 1 21 35 35
206 2 1 21 35 36
207 2 1 21 35 35
208 2 1 20 35 36
209 2 1 19 34 36
210 2 1 18 34 35
211 2 1 18 34 36
212 2 1 18 34 37
213 2 1 18 35 37
214 2 1 18 35 36
215 2 1 18 36 36
216 2 1 18 36 35
217 2 1 18 35 35
218 2 1 18 36 34
219 2 1 18 35 33
220 2 1 17 35 33
221 2 1 18 35 33
222 2 1 18 35 32
223 2 1 18 35 33
224 2 1 19 35 32
225 2 1 20 35 32
226 2 1 20 35 33
227 2 1 21 35 33
228 2 1 21 36 33
229 2 1 22 36 33
230 2 1 22 37 33
231 2 1 23 37 33
232 2 1 23 37 32
233 2 1 23 38 33
234 2 1 23 39 32
235 2 1 22 38 32
236 2 1 22 39 33
237 2 1 22 38 33
238 2 1 21 38 33
239 2 1 21 39 33
240 2 1 20 39 33
241 2 1 21 38 33
242 2 1 20 38 33
243 2 1 19 38 33
244 2 1 18 39 33
245 2 1 18 39 33
246 2 1 17 38 33
247 2 1 18 38 32
248 2 1 18 37 31
249 2 1 17 38 31
250 2 1 18 39 31
251 2 1 18 40 30
252 2 1 18 39 30
253 2 1 17 40 30
254 2 1 16 40 30
255 2 1 16 40 30
256 2 1 15 40 30
257 2 1 14 40 30
258 2 1 15 39 30
259 2 1 15 38 29
260 2 1 16 37 29
261 2 1 15 37 29
262 2 1 16 36 29
263 2 1 16 35 28
264 2 1 15 35 28
265 2 1 15 35 28
266 2 1 14 36 28
267 2 1 15 37 28
268 2 1 16 37 27
269 2 1 16 37 26
270 2 1 15 37 25
271 2 1 15 37 26
272 2 1 14 36 26
273 2 1 15 35 26
274 2 1 14 35 27
275 2 1 14 35 28
276 2 1 14 34 27
277 2 1 14 35 26
278 2 1 14 34 25
279 2 1 14 35 25
280 2 1 13 35 25
281 2 1 13 35 24
282 2 1 12 36 24
283 2 1 12 35 25
284 2 1 13 36 25
285 2 1 13 35 25
286 2 1 13 36 26
287 2 1 12 36 25
288 2 1 12 37 26
289 2 1 12 37 25
290 2 1 11 37 25
291 2 1 11 37 24
292 2 1 12 37 23
293 2 1 13 37 24
294 2 1 13 37 24
295 2 1 13 38 25
296 2 1 13 39 25
297 2 1 12 38 25
298 2 1 11 39 25
299 2 1 11 38 25
300 2 1 11 39 25
301 2 1 11 40 25
302 2 1 10 40 25
303 2 1 10 41 25
304 2 1 9 41 25
305 2 1 10 42 25
306 2 1 10 42 24
307 2 1 11 42 25
308 2 1 11 42 24
309 2 1 11 42 23
310 2 1 11 41 24
311 2 1 11 41 23
312 2 1 10 41 24
313 2 1 10 42 23
314 2 1 9 42 23
315 2 1 9 43 23
316 2 1 8 43 22
317 2 1 9 43 21
318 2 1 9 44 21
319 2 1 10 44 21
320 2 1 11 45 21
321 2 1 11 45 22
322 2 1 11 46 21
323 2 1 10 47 21
324 2 1 11 47 21
325 2 1 11 46 20
326 2 1 10 46 19
327 2 1 10 47 20
328 2 1 9 47 19
329 2 1 8 47 20
330 2 1 8 47 19
331 2 1 8 47 19
332 2 1 8 47 18
333 2 1 7 48 18
334 2 1 8 48 19
335 2 1 8 49 18
336 2 1 8 0 19
337 2 1 8 49 19
338 2 1 8 48 18
339 2 1 9 47 18
340 2 1 9 47 18
341 2 1 10 47 17
342 2 1 11 46 17
343 2 1 11 47 18
344 2 1 10 47 18
345 2 1 10 47 19
346 2 1 9 48 19
347 2 1 10 48 18
348 2 1 11 47 18
349 2 1 11 47 19
350 2 1 12 47 19
351 2 1 12 46 20
352 2 1 11 45 20
353 2 1 12 45 21
354 2 1 13 45 21
355 2 1 13 45 20
356 2 1 13 46 21
357 2 1 13 47 20
358 2 1 13 47 20
359 2 1 13 47 19
360 2 1 13 47 18
361 2 1 14 47 19
362 2 1 14 48 20
363 2 1 14 47 21
364 2 1 14 47 20
365 2 1 15 47 21
366 2 1 16 46 21
367 2 1 16 47 21
368 2 1 16 47 21
369 2 1 17 47 21
370 2 1 16 48 21
371 2 1 16 49 21
372 2 1 16 0 21
373 2 1 16 1 21
374 2 1 15 1 21
375 2 1 15 0 21
376 2 1 14 1 21
377 2 1 14 0 20
378 2 1 15 0 19
379 2 1 16 0 20
380 2 1 15 49 20
381 2 1 14 49 19
382 2 1 13 49 20
383 2 1 13 48 20
384 2 1 12 48 19
385 2 1 13 48 18
386 2 1 12 48 18
387 2 1 13 49 18
388 2 1 13 48 18
389 2 1 14 49 18
390 2 1 14 0 18
391 2 1 15 1 18
392 2 1 16 1 18
393 2 1 16 1 18
394 2 1 16 1 18
395 2 1 16 0 18
396 2 1 17 1 18
397 2 1 16 1 17
398 2 1 16 0 16
399 2 1 16 1 16
400 2 1 16 1 17
401 3 1 11 1 25
402 3 1 11 1 25
403 3 1 10 1 25
404 3 1 11 1 25
405 3 1 11 1 26
406 3 1 11 1 27
407 3 1 10 1 27
408 3 1 11 2 27
409 3 1 11 3 26
410 3 1 11 2 26
411 3 1 11 2 25
412 3 1 10 3 25
413 3 1 10 2 25
414 3 1 9 1 25
415 3 1 9 2 24
416 3 1 9 1 23
417 3 1 8 1 23
418 3 1 9 1 23
419 3 1 9 0 22
420 3 1 10 0 21
421 3 1 11 49 21
422 3 1 11 48 22
423 3 1 11 48 21
424 3 1 11 47 21
425 3 1 12 47 21
426 3 1 13 47 21
427 3 1 13 47 21
428 3 1 13 47 22
429 3 1 12 47 21
430 3 1 12 48 22
431 3 1 13 48 23
432 3 1 13 49 23
433 3 1 13 0 23
434 3 1 13 1 23
435 3 1 13 1 23
436 3 1 13 1 23
437 3 1 14 1 23
438 3 1 14 1 24
439 3 1 15 1 24
440 3 1 15 0 23
441 3 1 14 0 24
442 3 1 15 49 24
443 3 1 14 49 25
444 3 1 14 0 25
445 3 1 14 49 26
446 3 1 14 0 27
447 3 1 13 49 27
448 3 1 13 0 27
449 3 1 13 49 26
450 3 1 12 49 25
451 3 1 12 48 26
452 3 1 13 47 26
453 3 1 13 47 25
454 3 1 13 47 25
455 3 1 13 46 25
456 3 1 13 47 25
457 3 1 13 47 26
458 3 1 14 46 26
459 3 1 14 45 25
460 3 1 15 45 26
461 3 1 14 45 27
462 3 1 13 45 26
463 3 1 13 46 27
464 3 1 13 46 28
465 3 1 13 46 28
466 3 1 13 46 29
467 3 1 12 45 29
468 3 1 11 45 28
469 3 1 11 46 28
470 3 1 10 46 29
471 3 1 9 47 29
472 3 1 9 47 30
473 3 1 10 48 30
474 3 1 10 49 29
475 3 1 11 48 29
476 3 1 11 49 28
477 3 1 11 48 28
478 3 1 12 49 28
479 3 1 11 49 28
480 3 1 11 48 28
481 3 1 11 47 28
482 3 1 11 47 27
483 3 1 12 47 27
484 3 1 12 47 28
485 3 1 12 47 28
486 3 1 13 48 28
487 3 1 13 47 28
488 3 1 13 47 29
489 3 1 13 47 30
490 3 1 13 48 30
491 3 1 13 49 30
492 3 1 13 49 29
493 3 1 13 0 29
494 3 1 13 1 28
495 3 1 13 1 29
496 3 1 13 2 29
497 3 1 13 1 30
498 3 1 13 2 30
499 3 1 14 2 29
500 3 1 14 3 28
501 3 1 13 3 28
502 3 1 14 4 28
503 3 1 14 3 27
504 3 1 13 2 27
505 3 1 14 2 26
506 3 1 13 2 25
507 3 1 13 3 26
508 3 1 13 4 26
509 3 1 13 4 26
510 3 1 14 4 26
511 3 1 15 4 27
512 3 1 16 4 26
513 3 1 15 4 26
514 3 1 14 4 27
515 3 1 14 5 28
516 3 1 15 5 28
517 3 1 14 5 29
518 3 1 13 6 29
519 3 1 13 5 29
520 3 1 12 5 28
521 3 1 13 4 28
522 3 1 13 4 28
523 3 1 12 4 27
524 3 1 11 4 27
525 3 1 11 5 26
526 3 1 12 5 27
527 3 1 12 4 26
528 3 1 11 4 25
529 3 1 11 4 25
530 3 1 12 4 25
531 3 1 13 4 25
532 3 1 13 4 25
533 3 1 13 5 25
534 3 1 13 6 25
535 3 1 14 5 25
536 3 1 15 5 24
537 3 1 15 4 25
538 3 1 14 4 24
539 3 1 15 4 23
540 3 1 14 4 23
541 3 1 13 4 23
542 3 1 13 4 23
543 3 1 13 4 23
544 3 1 12 4 22
545 3 1 13 4 21
546 3 1 13 5 21
547 3 1 14 5 22
548 3 1 13 5 23
549 3 1 14 6 23
550 3 1 13 6 22
551 3 1 13 6 21
552 3 1 14 6 22
553 3 1 15 6 21
554 3 1 15 6 22
555 3 1 16 5 22
556 3 1 15 4 22
557 3 1 16 4 23
558 3 1 16 4 23
559 3 1 16 3 23
560 3 1 16 2 23
561 3 1 16 1 23
562 3 1 15 2 23
563 3 1 15 1 22
564 3 1 16 2 22
565 3 1 16 2 21
566 3 1 17 1 21
567 3 1 17 1 21
568 3 1 17 1 20
569 3 1 16 1 20
570 3 1 16 0 19
571 3 1 17 0 20
572 3 1 16 49 20
573 3 1 16 49 21
574 3 1 16 0 21
575 3 1 16 1 21
576 3 1 16 1 22
577 3 1 16 1 23
578 3 1 16 0 23
579 3 1 16 49 23
580 3 1 16 0 22
581 3 1 17 49 22
582 3 1 18 49 23
583 3 1 17 49 23
584 3 1 18 49 24
585 3 1 18 48 24
586 3 1 19 48 25
587 3 1 20 47 25
588 3 1 21 48 25
589 3 1 21 49 24
590 3 1 21 48 23
591 3 1 20 48 23
592 3 1 21 48 22
593 3 1 21 47 23
594 3 1 20 47 23
595 3 1 20 46 23
596 3 1 21 46 24
597 3 1 21 47 24
598 3 1 22 47 25
599 3 1 22 47 25
600 3 1 23 48 25
601 4 1 46 28 1
602 4 1 46 27 2
603 4 1 45 28 2
604 4 1 46 28 3
605 4 1 47 27 3
606 4 1 47 27 2
607 4 1 47 26 2
608 4 1 47 26 1
609 4 1 48 25 1
610 4 1 49 26 1
611 4 1 0 26 1
612 4 1 1 25 1
613 4 1 1 26 1
614 4 1 1 26 1
615 4 1 1 25 0
616 4 1 1 25 1
617 4 1 1 25 1
618 4 1 2 25 1
619 4 1 3 25 2
620 4 1 4 24 2
621 4 1 3 24 3
622 4 1 2 23 3
623 4 1 2 23 2
624 4 1 1 23 1
625 4 1 1 22 1
626 4 1 1 22 2
627 4 1 1 23 3
628 4 1 1 22 3
629 4 1 1 21 3
630 4 1 1 21 4
631 4 1 1 21 3
632 4 1 0 20 3
633 4 1 0 21 2
634 4 1 49 21 2
635 4 1 0 22 2
636 4 1 1 21 2
637 4 1 1 21 1
638 4 1 1 21 1
639 4 1 1 20 1
640 4 1 1 19 1
641 4 1 1 20 0
642 4 1 2 21 0
643 4 1 2 20 49
644 4 1 2 21 48
645 4 1 1 20 48
646 4 1 1 20 49
647 4 1 1 19 49
648 4 1 1 18 49
649 4 1 0 18 0
650 4 1 0 18 1
651 4 1 1 18 1
652 4 1 0 17 1
653 4 1 0 16 2
654 4 1 1 17 2
655 4 1 0 17 3
656 4 1 0 18 2
657 4 1 1 18 2
658 4 1 0 19 2
659 4 1 1 19 3
660 4 1 1 19 2
661 4 1 2 20 2
662 4 1 3 20 1
663 4 1 4 20 2
664 4 1 3 20 3
665 4 1 3 19 2
666 4 1 3 18 3
667 4 1 2 18 2
668 4 1 2 18 1
669 4 1 3 17 1
670 4 1 2 17 1
671 4 1 3 17 0
672 4 1 4 16 0
673 4 1 4 17 0
674 4 1 4 18 1
675 4 1 4 18 0
676 4 1 4 19 0
677 4 1 3 18 0
678 4 1 4 18 49
679 4 1 3 18 48
680 4 1 4 19 48
681 4 1 3 19 47
682 4 1 2 19 48
683 4 1 3 20 48
684 4 1 3 21 49
685 4 1 2 21 49
686 4 1 1 21 0
687 4 1 1 21 1
688 4 1 2 21 1
689 4 1 3 21 1
690 4 1 3 20 0
691 4 1 4 20 49
692 4 1 4 19 49
693 4 1 4 18 48
694 4 1 5 18 48
695 4 1 6 18 48
696 4 1 6 18 47
697 4 1 6 18 47
698 4 1 6 18 48
699 4 1 6 18 49
700 4 1 7 18 48
701 4 1 8 18 48
702 4 1 7 17 48
703 4 1 6 17 49
704 4 1 6 16 0
705 4 1 6 16 49
706 4 1 5 16 49
707 4 1 4 16 49
708 4 1 5 16 48
709 4 1 5 17 49
710 4 1 6 17 0
711 4 1 5 18 0
712 4 1 6 18 0
713 4 1 5 19 0
714 4 1 5 18 1
715 4 1 6 19 1
716 4 1 5 20 1
717 4 1 4 20 1
718 4 1 5 19 1
719 4 1 6 20 1
720 4 1 5 20 2
721 4 1 5 21 3
722 4 1 4 21 4
723 4 1 4 20 4
724 4 1 5 20 4
725 4 1 5 21 4
726 4 1 6 21 4
727 4 1 6 21 4
728 4 1 6 21 4
729 4 1 7 21 4
730 4 1 7 20 3
731 4 1 6 20 4
732 4 1 6 19 3
733 4 1 6 20 2
734 4 1 6 21 3
735 4 1 6 21 2
736 4 1 7 21 1
737 4 1 7 22 1
738 4 1 8 22 1
739 4 1 8 21 2
740 4 1 7 22 2
741 4 1 7 23 1
742 4 1 6 23 1
743 4 1 6 23 1
744 4 1 6 24 0
745 4 1 6 23 49
746 4 1 6 24 49
747 4 1 7 24 0
748 4 1 7 25 1
749 4 1 6 25 1
750 4 1 7 26 1
751 4 1 6 26 0
752 4 1 7 25 0
753 4 1 7 25 49
754 4 1 8 25 0
755 4 1 8 25 1
756 4 1 8 25 1
757 4 1 8 26 1
758 4 1 8 27 1
759 4 1 7 27 1
760 4 1 8 27 2
761 4 1 8 28 3
762 4 1 8 27 3
763 4 1 9 27 4
764 4 1 9 26 4
765 4 1 8 25 4
766 4 1 8 25 4
767 4 1 8 26 4
768 4 1 9 25 4
769 4 1 10 26 4
770 4 1 9 26 3
771 4 1 9 25 2
772 4 1 8 25 3
773 4 1 8 26 3
774 4 1 7 26 2
775 4 1 6 27 2
776 4 1 7 28 2
777 4 1 6 28 3
778 4 1 6 27 4
779 4 1 7 27 3
780 4 1 8 27 4
781 4 1 7 26 4
782 4 1 8 26 4
783 4 1 7 26 5
784 4 1 7 25 4
785 4 1 6 25 5
786 4 1 7 25 6
787 4 1 6 26 6
788 4 1 6 27 5
789 4 1 6 28 5
790 4 1 6 28 6
791 4 1 6 28 5
792 4 1 7 28 6
793 4 1 8 28 6
794 4 1 7 27 6
795 4 1 8 26 6
796 4 1 8 26 6
797 4 1 8 25 6
798 4 1 8 25 6
799 4 1 7 25 6
800 4 1 6 25 6
801 5 1 6 29 33
802 5 1 7 29 33
803 5 1 7 30 34
804 5 1 6 30 35
805 5 1 6 29 35
806 5 1 5 30 35
807 5 1 5 29 34
808 5 1 4 30 34
809 5 1 4 29 33
810 5 1 5 30 33
811 5 1 5 29 33
812 5 1 6 28 33
813 5 1 6 28 32
814 5 1 5 28 31
815 5 1 6 28 31
816 5 1 5 28 30
817 5 1 4 29 30
818 5 1 5 29 31
819 5 1 5 30 30
820 5 1 4 30 31
821 5 1 4 29 31
822 5 1 3 30 31
823 5 1 3 29 32
824 5 1 4 29 33
825 5 1 4 30 33
826 5 1 5 30 32
827 5 1 5 30 31
828 5 1 4 30 32
829 5 1 5 31 32
830 5 1 6 31 31
831 5 1 6 31 32
832 5 1 6 30 33
833 5 1 7 30 33
834 5 1 8 30 33
835 5 1 8 30 34
836 5 1 8 30 35
837 5 1 8 30 35
838 5 1 8 30 35
839 5 1 8 31 35
840 5 1 7 31 35
841 5 1 7 30 36
842 5 1 8 30 36
843 5 1 7 29 36
844 5 1 7 30 35
845 5 1 6 30 36
846 5 1 6 29 36
847 5 1 6 30 37
848 5 1 6 30 37
849 5 1 7 30 37
850 5 1 7 29 37
851 5 1 6 29 38
852 5 1 7 30 38
853 5 1 6 30 38
854 5 1 7 30 37
855 5 1 7 31 37
856 5 1 6 30 37
857 5 1 6 31 36
858 5 1 7 32 36
859 5 1 6 32 37
860 5 1 6 31 37
861 5 1 6 32 36
862 5 1 5 32 35
863 5 1 4 32 36
864 5 1 4 31 35
865 5 1 4 32 35
866 5 1 5 33 35
867 5 1 4 33 34
868 5 1 4 33 35
869 5 1 5 33 34
870 5 1 6 33 34
871 5 1 6 32 35
872 5 1 6 33 35
873 5 1 5 33 36
874 5 1 5 33 37
875 5 1 6 33 37
876 5 1 6 34 37
877 5 1 6 35 37
878 5 1 7 34 37
879 5 1 7 35 36
880 5 1 8 34 36
881 5 1 7 33 36
882 5 1 7 34 35
883 5 1 7 33 35
884 5 1 6 34 35
885 5 1 6 35 35
886 5 1 6 35 35
887 5 1 5 35 35
888 5 1 5 35 34
889 5 1 4 35 33
890 5 1 5 35 33
891 5 1 4 34 33
892 5 1 5 34 32
893 5 1 5 35 31
894 5 1 5 35 32
895 5 1 4 35 31
896 5 1 4 35 32
897 5 1 4 36 31
898 5 1 3 35 31
899 5 1 2 35 32
900 5 1 3 36 32
901 5 1 3 37 33
902 5 1 3 36 33
903 5 1 4 37 33
904 5 1 4 36 34
905 5 1 3 35 34
906 5 1 4 35 33
907 5 1 4 35 34
908 5 1 5 36 34
909 5 1 5 37 35
910 5 1 6 36 35
911 5 1 6 35 35
912 5 1 6 35 36
913 5 1 6 36 37
914 5 1 7 36 37
915 5 1 6 36 38
916 5 1 6 35 38
917 5 1 5 35 37
918 5 1 4 36 37
919 5 1 4 35 37
920 5 1 4 35 37
921 5 1 4 35 37
922 5 1 5 35 37
923 5 1 5 35 36
924 5 1 4 36 36
925 5 1 4 36 35
926 5 1 4 36 35
927 5 1 4 37 35
928 5 1 4 37 35
929 5 1 4 37 35
930 5 1 3 37 34
931 5 1 3 36 35
932 5 1 2 36 34
933 5 1 2 37 33
934 5 1 1 37 33
935 5 1 1 37 33
936 5 1 1 36 33
937 5 1 1 36 33
938 5 1 0 35 33
939 5 1 0 35 33
940 5 1 1 35 34
941 5 1 1 34 34
942 5 1 1 33 34
943 5 1 0 34 34
944 5 1 49 34 35
945 5 1 0 35 35
946 5 1 1 35 35
947 5 1 1 35 36
948 5 1 1 35 37
949 5 1 1 35 37
950 5 1 1 35 37
951 5 1 1 35 38
952 5 1 1 35 38
953 5 1 1 35 37
954 5 1 1 36 38
955 5 1 1 37 37
956 5 1 1 37 38
957 5 1 1 38 37
958 5 1 0 39 37
959 5 1 49 38 37
960 5 1 48 38 38
961 5 1 48 37 37
962 5 1 49 37 37
963 5 1 49 37 38
964 5 1 48 37 38
965 5 1 48 37 39
966 5 1 49 38 39
967 5 1 0 38 38
968 5 1 49 39 38
969 5 1 48 39 39
970 5 1 48 38 40
971 5 1 49 38 40
972 5 1 49 37 40
973 5 1 0 37 39
974 5 1 1 37 39
975 5 1 0 37 40
976 5 1 1 36 40
977 5 1 1 35 39
978 5 1 0 35 39
979 5 1 49 35 39
980 5 1 49 35 38
981 5 1 0 35 38
982 5 1 49 35 37
983 5 1 49 35 37
984 5 1 48 35 37
985 5 1 48 35 37
986 5 1 48 35 36
987 5 1 47 35 35
988 5 1 47 35 36
989 5 1 47 35 36
990 5 1 47 35 35
991 5 1 47 36 36
992 5 1 46 36 37
993 5 1 47 35 37
994 5 1 47 36 37
995 5 1 47 37 36
996 5 1 48 37 35
997 5 1 49 37 35
998 5 1 48 37 35
999 5 1 48 38 34
1000 5 1 49 38 35
1001 6 1 30 27 45
1002 6 1 30 27 46
1003 6 1 30 28 45
1004 6 1 30 28 46
1005 6 1 31 28 47
1006 6 1 32 28 47
1007 6 1 33 28 46
1008 6 1 33 28 47
1009 6 1 33 28 47
1010 6 1 34 28 47
1011 6 1 33 28 46
1012 6 1 34 28 45
1013 6 1 35 28 46
1014 6 1 35 28 46
1015 6 1 36 28 46
1016 6 1 35 28 45
1017 6 1 36 28 45
1018 6 1 37 28 45
1019 6 1 37 28 45
1020 6 1 37 28 45
1021 6 1 38 28 45
1022 6 1 38 28 45
1023 6 1 37 28 45
1024 6 1 37 29 45
1025 6 1 37 30 44
1026 6 1 36 30 44
1027 6 1 35 30 44
1028 6 1 36 29 44
1029 6 1 36 30 45
1030 6 1 37 30 45
1031 6 1 37 30 45
1032 6 1 38 30 45
1033 6 1 38 30 45
1034 6 1 39 31 45
1035 6 1 39 32 44
1036 6 1 39 33 45
1037 6 1 38 33 44
1038 6 1 37 33 44
1039 6 1 37 34 43
1040 6 1 37 35 44
1041 6 1 37 34 44
1042 6 1 37 33 45
1043 6 1 36 34 45
1044 6 1 36 33 44
1045 6 1 36 33 45
1046 6 1 35 32 45
1047 6 1 35 33 45
1048 6 1 35 33 44
1049 6 1 35 33 43
1050 6 1 34 33 43
1051 6 1 34 33 44
1052 6 1 34 33 45
1053 6 1 33 34 45
1054 6 1 33 35 45
1055 6 1 33 35 46
1056 6 1 32 35 45
1057 6 1 33 34 45
1058 6 1 33 33 45
1059 6 1 33 33 44
1060 6 1 33 34 43
1061 6 1 33 34 42
1062 6 1 32 33 42
1063 6 1 31 34 42
1064 6 1 30 33 42
1065 6 1 31 33 42
1066 6 1 31 33 43
1067 6 1 31 33 44
1068 6 1 30 32 44
1069 6 1 30 31 43
1070 6 1 30 30 44
1071 6 1 31 30 43
1072 6 1 31 30 42
1073 6 1 32 30 42
1074 6 1 33 30 43
1075 6 1 32 31 43
1076 6 1 32 30 44
1077 6 1 31 30 44
1078 6 1 32 29 44
1079 6 1 33 30 44
1080 6 1 33 29 44
1081 6 1 34 30 44
1082 6 1 34 29 45
1083 6 1 33 30 45
1084 6 1 33 30 44
1085 6 1 33 30 45
1086 6 1 33 31 44
1087 6 1 33 31 43
1088 6 1 34 31 44
1089 6 1 33 31 45
1090 6 1 34 31 45
1091 6 1 35 31 45
1092 6 1 34 32 45
1093 6 1 33 32 44
1094 6 1 33 33 43
1095 6 1 33 33 43
1096 6 1 33 34 44
1097 6 1 32 34 43
1098 6 1 32 33 44
1099 6 1 33 33 44
1100 6 1 32 33 43
1101 6 1 31 32 43
1102 6 1 32 32 42
1103 6 1 32 33 42
1104 6 1 32 32 41
1105 6 1 31 33 41
1106 6 1 32 33 41
1107 6 1 31 33 40
1108 6 1 31 34 40
1109 6 1 30 35 40
1110 6 1 30 34 39
1111 6 1 30 33 39
1112 6 1 29 33 40
1113 6 1 28 34 40
1114 6 1 28 33 39
1115 6 1 29 33 38
1116 6 1 29 34 39
1117 6 1 28 34 38
1118 6 1 28 35 39
1119 6 1 29 35 40
1120 6 1 28 35 40
1121 6 1 28 35 41
1122 6 1 28 35 42
1123 6 1 28 36 42
1124 6 1 28 37 42
1125 6 1 29 37 42
1126 6 1 29 36 42
1127 6 1 30 37 42
1128 6 1 30 37 43
1129 6 1 30 37 42
1130 6 1 31 37 43
1131 6 1 30 38 43
1132 6 1 30 39 44
1133 6 1 30 40 43
1134 6 1 31 39 43
1135 6 1 31 40 42
1136 6 1 30 39 42
1137 6 1 30 40 42
1138 6 1 31 40 41
1139 6 1 32 40 42
1140 6 1 33 39 42
1141 6 1 33 40 42
1142 6 1 33 40 43
1143 6 1 34 40 42
1144 6 1 34 39 43
1145 6 1 33 39 44
1146 6 1 33 40 44
1147 6 1 32 40 45
1148 6 1 31 40 44
1149 6 1 31 39 45
1150 6 1 31 40 45
1151 6 1 32 39 45
1152 6 1 32 38 46
1153 6 1 31 38 45
1154 6 1 30 39 45
1155 6 1 30 38 45
1156 6 1 30 39 46
1157 6 1 29 40 46
1158 6 1 29 39 47
1159 6 1 30 38 47
1160 6 1 30 39 47
1161 6 1 30 38 47
1162 6 1 31 39 47
1163 6 1 32 39 47
1164 6 1 32 40 47
1165 6 1 31 40 48
1166 6 1 31 40 49
1167 6 1 31 40 0
1168 6 1 31 40 1
1169 6 1 32 40 1
1170 6 1 32 41 1
1171 6 1 33 41 0
1172 6 1 33 42 0
1173 6 1 33 42 1
1174 6 1 33 42 1
1175 6 1 33 41 2
1176 6 1 34 40 2
1177 6 1 33 40 1
1178 6 1 33 40 2
1179 6 1 33 41 3
1180 6 1 32 41 4
1181 6 1 31 41 3
1182 6 1 31 40 2
1183 6 1 32 40 3
1184 6 1 31 40 4
1185 6 1 31 40 4
1186 6 1 30 40 4
1187 6 1 30 40 4
1188 6 1 29 40 3
1189 6 1 29 41 2
1190 6 1 28 41 1
1191 6 1 28 42 1
1192 6 1 29 42 0
1193 6 1 28 42 49
1194 6 1 28 41 49
1195 6 1 28 40 48
1196 6 1 28 40 47
1197 6 1 28 40 47
1198 6 1 28 41 47
1199 6 1 28 41 47
1200 6 1 29 41 47
1201 7 1 6 18 25
1202 7 1 7 18 25
1203 7 1 7 19 25
1204 7 1 6 18 25
1205 7 1 7 18 24
1206 7 1 6 18 23
1207 7 1 6 18 23
1208 7 1 6 18 22
1209 7 1 6 18 23
1210 7 1 6 18 22
1211 7 1 5 17 22
1212 7 1 5 16 21
1213 7 1 4 16 21
1214 7 1 5 15 21
1215 7 1 5 16 22
1216 7 1 5 15 23
1217 7 1 6 15 23
1218 7 1 6 16 24
1219 7 1 6 16 25
1220 7 1 6 16 24
1221 7 1 6 16 23
1222 7 1 7 16 24
1223 7 1 7 15 25
1224 7 1 8 16 25
1225 7 1 8 15 24
1226 7 1 7 14 24
1227 7 1 8 13 24
1228 7 1 8 13 25
1229 7 1 8 13 24
1230 7 1 9 13 24
1231 7 1 9 14 23
1232 7 1 10 15 23
1233 7 1 11 15 24
1234 7 1 10 14 24
1235 7 1 10 15 25
1236 7 1 11 15 25
1237 7 1 11 14 26
1238 7 1 11 14 27
1239 7 1 11 14 28
1240 7 1 11 15 28
1241 7 1 11 16 28
1242 7 1 10 16 28
1243 7 1 11 16 29
1244 7 1 10 16 30
1245 7 1 11 16 30
1246 7 1 10 16 30
1247 7 1 10 17 30
1248 7 1 11 18 30
1249 7 1 10 18 30
1250 7 1 11 18 31
1251 7 1 11 17 30
1252 7 1 11 16 30
1253 7 1 12 16 31
1254 7 1 11 17 31
1255 7 1 11 17 32
1256 7 1 11 18 33
1257 7 1 11 18 32
1258 7 1 11 18 31
1259 7 1 12 18 31
1260 7 1 12 17 30
1261 7 1 13 16 30
1262 7 1 13 17 31
1263 7 1 13 18 31
1264 7 1 13 17 32
1265 7 1 14 17 33
1266 7 1 14 18 32
1267 7 1 13 18 33
1268 7 1 13 17 33
1269 7 1 13 16 33
1270 7 1 12 16 34
1271 7 1 13 17 34
1272 7 1 12 17 33
1273 7 1 11 17 34
1274 7 1 12 18 34
1275 7 1 11 18 34
1276 7 1 12 18 33
1277 7 1 11 18 33
1278 7 1 11 18 33
1279 7 1 11 18 34
1280 7 1 10 18 35
1281 7 1 11 18 35
1282 7 1 11 19 34
1283 7 1 11 20 34
1284 7 1 11 19 35
1285 7 1 12 20 35
1286 7 1 12 19 35
1287 7 1 11 18 35
1288 7 1 11 18 36
1289 7 1 12 18 37
1290 7 1 12 18 37
1291 7 1 11 18 38
1292 7 1 11 19 38
1293 7 1 11 20 37
1294 7 1 10 21 37
1295 7 1 10 20 38
1296 7 1 9 20 39
1297 7 1 9 19 38
1298 7 1 9 20 37
1299 7 1 9 21 38
1300 7 1 10 21 39
1301 7 1 11 21 39
1302 7 1 11 22 40
1303 7 1 11 22 40
1304 7 1 12 22 40
1305 7 1 12 21 40
1306 7 1 11 21 41
1307 7 1 11 22 42
1308 7 1 12 22 41
1309 7 1 13 22 42
1310 7 1 12 22 42
1311 7 1 13 23 42
1312 7 1 13 23 42
1313 7 1 13 23 42
1314 7 1 13 24 42
1315 7 1 12 24 42
1316 7 1 12 23 42
1317 7 1 12 23 42
1318 7 1 12 23 41
1319 7 1 13 23 41
1320 7 1 13 23 41
1321 7 1 14 23 41
1322 7 1 14 22 42
1323 7 1 13 21 42
1324 7 1 13 21 41
1325 7 1 13 21 40
1326 7 1 14 21 40
1327 7 1 15 21 40
1328 7 1 16 21 40
1329 7 1 15 21 41
1330 7 1 15 21 42
1331 7 1 14 21 42
1332 7 1 13 21 42
1333 7 1 13 21 42
1334 7 1 12 21 42
1335 7 1 12 21 42
1336 7 1 11 21 42
1337 7 1 12 20 42
1338 7 1 11 20 41
1339 7 1 12 21 41
1340 7 1 11 21 40
1341 7 1 12 21 40
1342 7 1 13 21 40
1343 7 1 12 21 39
1344 7 1 12 21 38
1345 7 1 13 21 39
1346 7 1 12 20 39
1347 7 1 11 20 38
1348 7 1 11 21 37
1349 7 1 11 20 37
1350 7 1 11 19 37
1351 7 1 11 19 36
1352 7 1 11 18 36
1353 7 1 10 18 35
1354 7 1 11 19 35
1355 7 1 10 20 35
1356 7 1 9 19 35
1357 7 1 9 20 35
1358 7 1 8 21 35
1359 7 1 8 21 34
1360 7 1 9 21 35
1361 7 1 9 21 34
1362 7 1 8 20 34
1363 7 1 8 21 33
1364 7 1 8 20 33
1365 7 1 8 21 33
1366 7 1 7 21 33
1367 7 1 8 21 34
1368 7 1 7 20 34
1369 7 1 8 20 35
1370 7 1 7 20 35
1371 7 1 8 19 35
1372 7 1 8 18 36
1373 7 1 8 18 36
1374 7 1 8 17 37
1375 7 1 8 16 36
1376 7 1 9 16 35
1377 7 1 9 17 36
1378 7 1 10 17 35
1379 7 1 10 16 35
1380 7 1 9 16 34
1381 7 1 9 17 35
1382 7 1 8 16 35
1383 7 1 8 16 35
1384 7 1 8 17 35
1385 7 1 8 18 35
1386 7 1 9 18 35
1387 7 1 10 18 34
1388 7 1 9 19 34
1389 7 1 8 19 33
1390 7 1 8 18 34
1391 7 1 8 18 33
1392 7 1 8 18 34
1393 7 1 8 17 34
1394 7 1 8 17 33
1395 7 1 7 18 33
1396 7 1 6 18 34
1397 7 1 6 18 34
1398 7 1 5 18 35
1399 7 1 5 19 34
1400 7 1 4 19 35
1401 8 1 46 48 36
1402 8 1 45 48 37
1403 8 1 45 48 36
1404 8 1 45 49 36
1405 8 1 45 49 37
1406 8 1 45 49 37
1407 8 1 45 0 37
1408 8 1 45 49 38
1409 8 1 44 0 38
1410 8 1 43 0 39
1411 8 1 43 1 38
1412 8 1 42 1 39
1413 8 1 42 1 39
1414 8 1 42 1 40
1415 8 1 41 1 40
1416 8 1 41 1 40
1417 8 1 41 1 39
1418 8 1 40 0 39
1419 8 1 40 49 38
1420 8 1 41 49 39
1421 8 1 40 48 39
1422 8 1 40 47 40
1423 8 1 40 47 40
1424 8 1 40 47 40
1425 8 1 41 47 40
1426 8 1 41 47 39
1427 8 1 41 48 40
1428 8 1 40 48 40
1429 8 1 40 49 41
1430 8 1 41 49 42
1431 8 1 42 0 42
1432 8 1 42 49 42
1433 8 1 41 0 42
1434 8 1 40 49 42
1435 8 1 40 49 42
1436 8 1 40 48 42
1437 8 1 41 48 41
1438 8 1 41 47 42
1439 8 1 42 47 42
1440 8 1 42 47 43
1441 8 1 42 47 42
1442 8 1 42 47 42
1443 8 1 42 46 42
1444 8 1 42 46 41
1445 8 1 41 46 42
1446 8 1 40 46 41
1447 8 1 41 46 40
1448 8 1 41 47 41
1449 8 1 40 47 42
1450 8 1 40 47 42
1451 8 1 41 47 42
1452 8 1 40 47 43
1453 8 1 40 46 42
1454 8 1 40 45 42
1455 8 1 40 46 42
1456 8 1 40 45 42
1457 8 1 41 45 41
1458 8 1 41 45 42
1459 8 1 41 45 42
1460 8 1 42 45 42
1461 8 1 42 45 43
1462 8 1 42 46 43
1463 8 1 43 45 43
1464 8 1 44 45 44
1465 8 1 45 46 44
1466 8 1 45 47 45
1467 8 1 44 47 45
1468 8 1 44 47 45
1469 8 1 43 47 44
1470 8 1 43 47 45
1471 8 1 44 46 45
1472 8 1 45 46 45
1473 8 1 44 46 46
1474 8 1 45 45 46
1475 8 1 45 46 46
1476 8 1 45 47 45
1477 8 1 46 47 45
1478 8 1 46 48 46
1479 8 1 47 48 45
1480 8 1 47 49 46
1481 8 1 47 48 46
1482 8 1 47 49 47
1483 8 1 47 49 47
1484 8 1 47 48 48
1485 8 1 47 49 48
1486 8 1 47 48 49
1487 8 1 47 48 0
1488 8 1 47 47 1
1489 8 1 47 48 1
1490 8 1 47 49 1
1491 8 1 47 0 1
1492 8 1 47 49 1
1493 8 1 47 48 2
1494 8 1 47 48 3
1495 8 1 47 47 2
1496 8 1 46 47 1
1497 8 1 46 47 1
1498 8 1 47 47 1
1499 8 1 47 46 2
1500 8 1 46 45 2
1501 8 1 46 45 3
1502 8 1 45 45 3
1503 8 1 45 46 4
1504 8 1 45 45 4
1505 8 1 45 45 4
1506 8 1 45 45 4
1507 8 1 45 44 3
1508 8 1 45 43 4
1509 8 1 45 42 3
1510 8 1 45 42 2
1511 8 1 44 42 3
1512 8 1 45 42 4
1513 8 1 44 42 4
1514 8 1 44 43 5
1515 8 1 43 44 5
1516 8 1 43 45 4
1517 8 1 43 44 4
1518 8 1 44 44 3
1519 8 1 44 45 4
1520 8 1 44 45 3
1521 8 1 43 45 3
1522 8 1 44 45 2
1523 8 1 43 44 2
1524 8 1 43 43 3
1525 8 1 42 42 3
1526 8 1 42 42 4
1527 8 1 42 41 4
1528 8 1 42 42 3
1529 8 1 41 42 3
1530 8 1 42 42 4
1531 8 1 41 43 4
1532 8 1 41 44 3
1533 8 1 40 44 4
1534 8 1 40 44 3
1535 8 1 39 44 4
1536 8 1 38 44 3
1537 8 1 37 45 3
1538 8 1 37 45 4
1539 8 1 38 45 4
1540 8 1 39 45 4
1541 8 1 40 46 4
1542 8 1 40 45 4
1543 8 1 40 45 4
1544 8 1 40 45 5
1545 8 1 40 45 4
1546 8 1 41 45 4
1547 8 1 41 46 5
1548 8 1 42 45 5
1549 8 1 42 46 6
1550 8 1 42 47 6
1551 8 1 42 46 5
1552 8 1 43 46 6
1553 8 1 44 45 6
1554 8 1 45 45 5
1555 8 1 45 46 5
1556 8 1 45 46 6
1557 8 1 45 45 6
1558 8 1 45 45 6
1559 8 1 45 45 5
1560 8 1 46 45 5
1561 8 1 47 45 6
1562 8 1 46 45 6
1563 8 1 45 45 6
1564 8 1 45 45 6
1565 8 1 46 44 6
1566 8 1 47 44 6
1567 8 1 47 43 6
1568 8 1 47 43 7
1569 8 1 47 43 8
1570 8 1 47 42 8
1571 8 1 46 42 9
1572 8 1 45 42 9
1573 8 1 45 42 10
1574 8 1 45 41 10
1575 8 1 46 42 10
1576 8 1 47 42 9
1577 8 1 47 42 10
1578 8 1 47 42 11
1579 8 1 47 42 11
1580 8 1 47 41 11
1581 8 1 47 40 12
1582 8 1 47 40 11
1583 8 1 47 40 12
1584 8 1 47 40 11
1585 8 1 47 40 11
1586 8 1 48 40 10
1587 8 1 48 39 11
1588 8 1 47 39 11
1589 8 1 48 39 12
1590 8 1 47 38 12
1591 8 1 48 38 13
1592 8 1 49 38 12
1593 8 1 48 37 12
1594 8 1 49 37 11
1595 8 1 0 38 11
1596 8 1 0 39 11
1597 8 1 49 39 10
1598 8 1 49 40 11
1599 8 1 48 40 11
1600 8 1 49 40 11
1601 9 1 1 31 30
1602 9 1 2 30 30
1603 9 1 2 30 30
1604 9 1 3 30 30
1605 9 1 2 29 30
1606 9 1 2 28 29
1607 9 1 3 28 30
1608 9 1 4 28 30
1609 9 1 4 28 29
1610 9 1 3 29 29
1611 9 1 3 28 28
1612 9 1 4 29 28
1613 9 1 3 30 28
1614 9 1 2 29 28
1615 9 1 2 30 28
1616 9 1 2 30 28
1617 9 1 3 30 29
1618 9 1 4 31 29
1619 9 1 4 32 30
1620 9 1 4 32 29
1621 9 1 5 33 29
1622 9 1 6 33 30
1623 9 1 6 32 30
1624 9 1 6 32 30
1625 9 1 6 31 29
1626 9 1 6 30 29
1627 9 1 6 31 28
1628 9 1 6 30 28
1629 9 1 5 30 28
1630 9 1 4 30 28
1631 9 1 4 30 27
1632 9 1 4 30 28
1633 9 1 4 30 28
1634 9 1 5 29 28
1635 9 1 5 28 28
1636 9 1 4 28 28
1637 9 1 5 28 27
1638 9 1 5 27 26
1639 9 1 5 28 25
1640 9 1 5 27 25
1641 9 1 4 28 25
1642 9 1 4 27 25
1643 9 1 4 26 25
1644 9 1 4 25 25
1645 9 1 4 26 25
1646 9 1 4 25 24
1647 9 1 4 25 25
1648 9 1 5 25 24
1649 9 1 4 24 24
1650 9 1 4 24 23
1651 9 1 3 23 23
1652 9 1 2 23 23
1653 9 1 2 23 22
1654 9 1 3 23 21
1655 9 1 3 22 22
1656 9 1 2 22 21
1657 9 1 3 22 21
1658 9 1 3 21 20
1659 9 1 3 21 21
1660 9 1 4 21 21
1661 9 1 4 21 21
1662 9 1 5 21 21
1663 9 1 5 21 21
1664 9 1 6 21 22
1665 9 1 5 20 22
1666 9 1 4 20 21
1667 9 1 4 21 21
1668 9 1 4 20 20
1669 9 1 4 20 21
1670 9 1 3 19 21
1671 9 1 4 18 21
1672 9 1 4 18 20
1673 9 1 5 18 21
1674 9 1 5 19 21
1675 9 1 6 19 21
1676 9 1 6 19 21
1677 9 1 6 18 21
1678 9 1 5 18 22
1679 9 1 5 18 21
1680 9 1 4 18 22
1681 9 1 4 17 22
1682 9 1 3 17 21
1683 9 1 4 16 21
1684 9 1 3 16 21
1685 9 1 3 16 22
1686 9 1 2 16 21
1687 9 1 2 16 22
1688 9 1 3 15 22
1689 9 1 4 15 21
1690 9 1 4 15 22
1691 9 1 5 14 22
1692 9 1 5 13 23
1693 9 1 4 14 23
1694 9 1 5 14 23
1695 9 1 5 13 24
1696 9 1 5 14 25
1697 9 1 5 13 25
1698 9 1 5 13 25
1699 9 1 4 12 25
1700 9 1 5 11 25
1701 9 1 5 11 25
1702 9 1 5 11 26
1703 9 1 5 12 25
1704 9 1 4 12 26
1705 9 1 4 11 26
1706 9 1 4 11 27
1707 9 1 4 11 28
1708 9 1 4 11 28
1709 9 1 3 11 28
1710 9 1 3 11 27
1711 9 1 4 11 27
1712 9 1 3 11 26
1713 9 1 2 10 26
1714 9 1 2 9 27
1715 9 1 3 9 26
1716 9 1 2 9 25
1717 9 1 1 8 25
1718 9 1 1 8 25
1719 9 1 1 8 25
1720 9 1 1 7 25
1721 9 1 1 8 26
1722 9 1 2 8 25
1723 9 1 2 7 25
1724 9 1 2 8 24
1725 9 1 1 7 24
1726 9 1 1 8 24
1727 9 1 1 8 24
1728 9 1 2 8 23
1729 9 1 1 8 23
1730 9 1 1 9 23
1731 9 1 2 10 23
1732 9 1 1 10 24
1733 9 1 1 9 25
1734 9 1 1 10 25
1735 9 1 1 11 25
1736 9 1 1 11 25
1737 9 1 2 10 25
1738 9 1 2 11 25
1739 9 1 3 11 25
1740 9 1 3 11 25
1741 9 1 2 11 25
1742 9 1 2 12 25
1743 9 1 3 12 25
1744 9 1 2 13 25
1745 9 1 3 13 24
1746 9 1 3 12 23
1747 9 1 2 12 24
1748 9 1 3 11 24
1749 9 1 3 11 23
1750 9 1 2 11 23
1751 9 1 2 11 23
1752 9 1 1 11 23
1753 9 1 1 11 22
1754 9 1 2 10 22
1755 9 1 3 10 21
1756 9 1 4 11 21
1757 9 1 4 10 21
1758 9 1 4 11 21
1759 9 1 4 11 21
1760 9 1 3 11 21
1761 9 1 4 10 21
1762 9 1 3 9 21
1763 9 1 3 8 21
1764 9 1 2 9 21
1765 9 1 2 8 22
1766 9 1 1 9 22
1767 9 1 1 10 23
1768 9 1 1 10 23
1769 9 1 1 11 24
1770 9 1 1 11 23
1771 9 1 1 11 23
1772 9 1 1 11 23
1773 9 1 1 12 23
1774 9 1 1 12 23
1775 9 1 1 12 24
1776 9 1 0 11 24
1777 9 1 49 12 24
1778 9 1 49 11 25
1779 9 1 49 11 24
1780 9 1 48 11 24
1781 9 1 48 11 23
1782 9 1 49 10 23
1783 9 1 0 10 24
1784 9 1 0 11 23
1785 9 1 49 11 23
1786 9 1 49 11 23
1787 9 1 48 12 23
1788 9 1 47 12 23
1789 9 1 47 12 23
1790 9 1 47 13 23
1791 9 1 47 13 23
1792 9 1 47 13 22
1793 9 1 47 13 21